
     Program PWSCF v.6.8 starts on 16Apr2022 at 14: 9:56 

     This program is part of the open-source Quantum ESPRESSO suite
     for quantum simulation of materials; please cite
         "P. Giannozzi et al., J. Phys.:Condens. Matter 21 395502 (2009);
         "P. Giannozzi et al., J. Phys.:Condens. Matter 29 465901 (2017);
         "P. Giannozzi et al., J. Chem. Phys. 152 154105 (2020);
          URL http://www.quantum-espresso.org", 
     in publications or presentations arising from this work. More details at
     http://www.quantum-espresso.org/quote

     Parallel version (MPI & OpenMP), running on       4 processor cores
     Number of MPI processes:                 2
     Threads/MPI process:                     2

     MPI processes distributed on     1 nodes
     R & G space division:  proc/nbgrp/npool/nimage =       2
     121629 MiB available memory on the printing compute node when the environment starts
 
     Waiting for input...
     Reading input from standard input

     Current dimensions of program PWSCF are:
     Max number of different atomic species (ntypx) = 10
     Max number of k-points (npk) =  40000
     Max angular momentum in pseudopotentials (lmaxx) =  4

     Atomic positions and unit cell read from directory:
     /scratch/as3359/MoS2_bandsdos/Ta.save/
 
     file Mo.pbesol-spn-kjpaw_psl.1.0.0.UPF: wavefunction(s)  4S 4D renormalized
     file S.pbesol-nl-kjpaw_psl.1.0.0.UPF: wavefunction(s)  3S renormalized

     Subspace diagonalization in iterative solution of the eigenvalue problem:
     a serial algorithm will be used

 
     Parallelization info
     --------------------
     sticks:   dense  smooth     PW     G-vecs:    dense   smooth      PW
     Min         838     729    210               144365   114719   16984
     Max         839     730    211               144374   114728   16985
     Sum        1677    1459    421               288739   229447   33969
 
     Using Slab Decomposition
 


     bravais-lattice index     =            0
     lattice parameter (alat)  =       6.0720  a.u.
     unit-cell volume          =     924.7995 (a.u.)^3
     number of atoms/cell      =            3
     number of atomic types    =            2
     number of electrons       =        26.00
     number of Kohn-Sham states=           42
     kinetic-energy cutoff     =     150.0000  Ry
     charge density cutoff     =     700.0000  Ry
     Exchange-correlation= SLA  PW   PSX  PSC
                           (   1   4  10   8   0   0   0)

     celldm(1)=   6.072000  celldm(2)=   0.000000  celldm(3)=   0.000000
     celldm(4)=   0.000000  celldm(5)=   0.000000  celldm(6)=   0.000000

     crystal axes: (cart. coord. in units of alat)
               a(1) = (   0.976384  -0.000017   0.000000 )  
               a(2) = (  -0.487931   0.846187   0.000000 )  
               a(3) = (   0.000000   0.000000   5.000000 )  

     reciprocal axes: (cart. coord. in units 2 pi/alat)
               b(1) = (  1.024198  0.590577  0.000000 )  
               b(2) = (  0.000021  1.181785  0.000000 )  
               b(3) = (  0.000000  0.000000  0.200000 )  


     PseudoPot. # 1 for Mo read from file:
     /shared/home/as3359/pseudo/Mo.pbesol-spn-kjpaw_psl.1.0.0.UPF
     MD5 check sum: de57925cfc675213e43241dcc441eda8
     Pseudo is Projector augmented-wave + core cor, Zval = 14.0
     Generated using &quot;atomic&quot; code by A. Dal Corso  v.6.3
     Shape of augmentation charge: PSQ
     Using radial grid of 1229 points,  6 beta functions with: 
                l(1) =   0
                l(2) =   0
                l(3) =   1
                l(4) =   1
                l(5) =   2
                l(6) =   2
     Q(r) pseudized with 0 coefficients 


     PseudoPot. # 2 for S  read from file:
     /shared/home/as3359/pseudo/S.pbesol-nl-kjpaw_psl.1.0.0.UPF
     MD5 check sum: bf3db50ec3f960682bbc396f1aadd1dd
     Pseudo is Projector augmented-wave + core cor, Zval =  6.0
     Generated using &quot;atomic&quot; code by A. Dal Corso  v.6.3
     Shape of augmentation charge: PSQ
     Using radial grid of 1151 points,  4 beta functions with: 
                l(1) =   0
                l(2) =   0
                l(3) =   1
                l(4) =   1
     Q(r) pseudized with 0 coefficients 


     atomic species   valence    mass     pseudopotential
        Mo            14.00    95.94000     Mo( 1.00)
        S              6.00    32.06500     S ( 1.00)

     No symmetry found



   Cartesian axes

     site n.     atom                  positions (alat units)
         1           Mo  tau(   1) = (   0.0000000   0.0000000   1.6880765  )
         2           S   tau(   2) = (   0.4883508   0.2821722   2.1737857  )
         3           S   tau(   3) = (   0.4883508   0.2821722   1.2023670  )

     number of k points=    91  Marzari-Vanderbilt smearing, width (Ry)=  0.0010
                       cart. coord. in units 2pi/alat
        k(    1) = (   0.0000000   0.0000000   0.0000000), wk =   0.0219780
        k(    2) = (   0.0227597  -0.0000070   0.0000000), wk =   0.0219780
        k(    3) = (   0.0455194  -0.0000140   0.0000000), wk =   0.0219780
        k(    4) = (   0.0682792  -0.0000210   0.0000000), wk =   0.0219780
        k(    5) = (   0.0910389  -0.0000281   0.0000000), wk =   0.0219780
        k(    6) = (   0.1137986  -0.0000351   0.0000000), wk =   0.0219780
        k(    7) = (   0.1365583  -0.0000421   0.0000000), wk =   0.0219780
        k(    8) = (   0.1593180  -0.0000491   0.0000000), wk =   0.0219780
        k(    9) = (   0.1820777  -0.0000561   0.0000000), wk =   0.0219780
        k(   10) = (   0.2048375  -0.0000631   0.0000000), wk =   0.0219780
        k(   11) = (   0.2275972  -0.0000701   0.0000000), wk =   0.0219780
        k(   12) = (   0.2503569  -0.0000771   0.0000000), wk =   0.0219780
        k(   13) = (   0.2731166  -0.0000842   0.0000000), wk =   0.0219780
        k(   14) = (   0.2958763  -0.0000912   0.0000000), wk =   0.0219780
        k(   15) = (   0.3186361  -0.0000982   0.0000000), wk =   0.0219780
        k(   16) = (   0.3413958  -0.0001052   0.0000000), wk =   0.0219780
        k(   17) = (   0.3641555  -0.0001122   0.0000000), wk =   0.0219780
        k(   18) = (   0.3869152  -0.0001192   0.0000000), wk =   0.0219780
        k(   19) = (   0.4096749  -0.0001262   0.0000000), wk =   0.0219780
        k(   20) = (   0.4324346  -0.0001333   0.0000000), wk =   0.0219780
        k(   21) = (   0.4551944  -0.0001403   0.0000000), wk =   0.0219780
        k(   22) = (   0.4779541  -0.0001473   0.0000000), wk =   0.0219780
        k(   23) = (   0.5007138  -0.0001543   0.0000000), wk =   0.0219780
        k(   24) = (   0.5234735  -0.0001613   0.0000000), wk =   0.0219780
        k(   25) = (   0.5462332  -0.0001683   0.0000000), wk =   0.0219780
        k(   26) = (   0.5689930  -0.0001753   0.0000000), wk =   0.0219780
        k(   27) = (   0.5917527  -0.0001824   0.0000000), wk =   0.0219780
        k(   28) = (   0.6145124  -0.0001894   0.0000000), wk =   0.0219780
        k(   29) = (   0.6372721  -0.0001964   0.0000000), wk =   0.0219780
        k(   30) = (   0.6600318  -0.0002034   0.0000000), wk =   0.0219780
        k(   31) = (   0.6827915  -0.0002104   0.0000000), wk =   0.0219780
        k(   32) = (   0.6771014  -0.0100569   0.0000000), wk =   0.0219780
        k(   33) = (   0.6714113  -0.0199033   0.0000000), wk =   0.0219780
        k(   34) = (   0.6657212  -0.0297498   0.0000000), wk =   0.0219780
        k(   35) = (   0.6600311  -0.0395962   0.0000000), wk =   0.0219780
        k(   36) = (   0.6543410  -0.0494427   0.0000000), wk =   0.0219780
        k(   37) = (   0.6486509  -0.0592891   0.0000000), wk =   0.0219780
        k(   38) = (   0.6429608  -0.0691356   0.0000000), wk =   0.0219780
        k(   39) = (   0.6372707  -0.0789820   0.0000000), wk =   0.0219780
        k(   40) = (   0.6315806  -0.0888285   0.0000000), wk =   0.0219780
        k(   41) = (   0.6258905  -0.0986749   0.0000000), wk =   0.0219780
        k(   42) = (   0.6202004  -0.1085214   0.0000000), wk =   0.0219780
        k(   43) = (   0.6145103  -0.1183678   0.0000000), wk =   0.0219780
        k(   44) = (   0.6088202  -0.1282143   0.0000000), wk =   0.0219780
        k(   45) = (   0.6031301  -0.1380607   0.0000000), wk =   0.0219780
        k(   46) = (   0.5974400  -0.1479072   0.0000000), wk =   0.0219780
        k(   47) = (   0.5917499  -0.1577536   0.0000000), wk =   0.0219780
        k(   48) = (   0.5860598  -0.1676001   0.0000000), wk =   0.0219780
        k(   49) = (   0.5803697  -0.1774465   0.0000000), wk =   0.0219780
        k(   50) = (   0.5746796  -0.1872930   0.0000000), wk =   0.0219780
        k(   51) = (   0.5689895  -0.1971394   0.0000000), wk =   0.0219780
        k(   52) = (   0.5632994  -0.2069859   0.0000000), wk =   0.0219780
        k(   53) = (   0.5576093  -0.2168323   0.0000000), wk =   0.0219780
        k(   54) = (   0.5519192  -0.2266788   0.0000000), wk =   0.0219780
        k(   55) = (   0.5462291  -0.2365252   0.0000000), wk =   0.0219780
        k(   56) = (   0.5405390  -0.2463717   0.0000000), wk =   0.0219780
        k(   57) = (   0.5348488  -0.2562181   0.0000000), wk =   0.0219780
        k(   58) = (   0.5291587  -0.2660646   0.0000000), wk =   0.0219780
        k(   59) = (   0.5234686  -0.2759110   0.0000000), wk =   0.0219780
        k(   60) = (   0.5177785  -0.2857575   0.0000000), wk =   0.0219780
        k(   61) = (   0.5120884  -0.2956039   0.0000000), wk =   0.0219780
        k(   62) = (   0.4950188  -0.2857505   0.0000000), wk =   0.0219780
        k(   63) = (   0.4779492  -0.2758970   0.0000000), wk =   0.0219780
        k(   64) = (   0.4608796  -0.2660435   0.0000000), wk =   0.0219780
        k(   65) = (   0.4438100  -0.2561901   0.0000000), wk =   0.0219780
        k(   66) = (   0.4267404  -0.2463366   0.0000000), wk =   0.0219780
        k(   67) = (   0.4096707  -0.2364831   0.0000000), wk =   0.0219780
        k(   68) = (   0.3926011  -0.2266297   0.0000000), wk =   0.0219780
        k(   69) = (   0.3755315  -0.2167762   0.0000000), wk =   0.0219780
        k(   70) = (   0.3584619  -0.2069228   0.0000000), wk =   0.0219780
        k(   71) = (   0.3413923  -0.1970693   0.0000000), wk =   0.0219780
        k(   72) = (   0.3243227  -0.1872158   0.0000000), wk =   0.0219780
        k(   73) = (   0.3072531  -0.1773624   0.0000000), wk =   0.0219780
        k(   74) = (   0.2901834  -0.1675089   0.0000000), wk =   0.0219780
        k(   75) = (   0.2731138  -0.1576554   0.0000000), wk =   0.0219780
        k(   76) = (   0.2560442  -0.1478020   0.0000000), wk =   0.0219780
        k(   77) = (   0.2389746  -0.1379485   0.0000000), wk =   0.0219780
        k(   78) = (   0.2219050  -0.1280950   0.0000000), wk =   0.0219780
        k(   79) = (   0.2048354  -0.1182416   0.0000000), wk =   0.0219780
        k(   80) = (   0.1877658  -0.1083881   0.0000000), wk =   0.0219780
        k(   81) = (   0.1706961  -0.0985346   0.0000000), wk =   0.0219780
        k(   82) = (   0.1536265  -0.0886812   0.0000000), wk =   0.0219780
        k(   83) = (   0.1365569  -0.0788277   0.0000000), wk =   0.0219780
        k(   84) = (   0.1194873  -0.0689743   0.0000000), wk =   0.0219780
        k(   85) = (   0.1024177  -0.0591208   0.0000000), wk =   0.0219780
        k(   86) = (   0.0853481  -0.0492673   0.0000000), wk =   0.0219780
        k(   87) = (   0.0682785  -0.0394139   0.0000000), wk =   0.0219780
        k(   88) = (   0.0512088  -0.0295604   0.0000000), wk =   0.0219780
        k(   89) = (   0.0341392  -0.0197069   0.0000000), wk =   0.0219780
        k(   90) = (   0.0170696  -0.0098535   0.0000000), wk =   0.0219780
        k(   91) = (   0.0000000   0.0000000   0.0000000), wk =   0.0219780

     Dense  grid:   288739 G-vectors     FFT dimensions: (  50,  50, 256)

     Smooth grid:   229447 G-vectors     FFT dimensions: (  48,  48, 240)

     Estimated max dynamical RAM per process >     481.30 MB

     Estimated total dynamical RAM >     962.60 MB

     The potential is recalculated from file :
     /scratch/as3359/MoS2_bandsdos/Ta.save/charge-density


     negative rho (up, down):  5.093E-05 0.000E+00
     Starting wfcs are   18 randomized atomic wfcs +   24 random wfcs
     Checking if some PAW data can be deallocated... 

     Band Structure Calculation
     Davidson diagonalization with overlap

     ethr =  1.00E-13,  avg # of iterations = 61.9

     total cpu time spent up to now is      353.4 secs

     End of band structure calculation

          k = 0.0000 0.0000 0.0000 ( 28805 PWs)   bands (ev):

   -60.3488 -34.5534 -34.2856 -34.2843 -13.8551 -12.5035  -5.4143  -2.2345
    -2.2258  -1.4938  -1.0735  -1.0671   0.2790   3.2736   3.2792   3.5376
     3.5451   5.7571   6.2000   6.7193   7.4291   9.1945   9.5258  10.8166
    11.2051  11.2185  13.2146  13.2297  13.3551  13.8515  15.5912  16.5436
    16.5512  16.6055  16.8746  16.8809  18.9404  19.7791  20.3896  21.2923
    23.6008  23.6165

          k = 0.0228-0.0000 0.0000 ( 28791 PWs)   bands (ev):

   -60.3486 -34.5530 -34.2862 -34.2858 -13.8492 -12.5011  -5.4074  -2.2404
    -2.2275  -1.5366  -1.0834  -1.0327   0.2772   3.2669   3.2865   3.5252
     3.5306   5.7674   6.2075   6.7454   7.4391   9.2025   9.5529  10.8084
    11.2151  11.2258  13.1738  13.2166  13.3559  13.8583  15.5903  16.4986
    16.5531  16.6808  16.8537  16.8816  18.9622  19.8044  20.4352  21.2895
    23.5759  23.6197

          k = 0.0455-0.0000 0.0000 ( 28799 PWs)   bands (ev):

   -60.3481 -34.5521 -34.2909 -34.2871 -13.8314 -12.4937  -5.3871  -2.2809
    -2.2091  -1.6382  -1.1134  -0.9560   0.2715   3.2373   3.3186   3.4685
     3.5094   5.7971   6.2298   6.8218   7.4697   9.2257   9.6331  10.7814
    11.2141  11.2818  13.0211  13.2213  13.3562  13.8772  15.5873  16.3765
    16.5727  16.7904  16.8772  16.8866  19.0273  19.8682  20.5740  21.2807
    23.4680  23.6664

          k = 0.0683-0.0000 0.0000 ( 28775 PWs)   bands (ev):

   -60.3473 -34.5505 -34.2990 -34.2889 -13.8020 -12.4815  -5.3536  -2.3466
    -2.1783  -1.7657  -1.1639  -0.8692   0.2611   3.1925   3.3717   3.3813
     3.4747   5.8439   6.2668   6.9424   7.5228   9.2620   9.7624  10.7324
    11.2192  11.3751  12.8021  13.2278  13.3505  13.9064  15.5810  16.2059
    16.6031  16.6829  16.9023  17.1687  19.1352  19.9505  20.8018  21.2656
    23.3088  23.6880

          k = 0.0910-0.0000 0.0000 ( 28775 PWs)   bands (ev):

   -60.3461 -34.5483 -34.3100 -34.2915 -13.7611 -12.4646  -5.3078  -2.4344
    -2.1358  -1.9043  -1.2355  -0.7862   0.2445   3.1387   3.2727   3.4273
     3.4440   5.9055   6.3183   7.0963   7.6036   9.3102   9.9329  10.6623
    11.2360  11.5012  12.5471  13.2335  13.3328  13.9450  15.5697  16.0139
    16.5309  16.6443  16.9369  17.5260  19.2845  20.0435  21.0987  21.2418
    23.0962  23.1380

          k = 0.1138-0.0000 0.0000 ( 28733 PWs)   bands (ev):

   -60.3447 -34.5455 -34.3239 -34.2949 -13.7091 -12.4431  -5.2506  -2.5406
    -2.0824  -2.0471  -1.3285  -0.7125   0.2198   3.0826   3.1519   3.3688
     3.5335   5.9804   6.3841   7.2659   7.7224   9.3694  10.1327  10.5768
    11.2654  11.6533  12.2802  13.2346  13.3004  13.9928  15.5502  15.8261
    16.3378  16.6952  16.9973  17.9250  19.4720  20.1495  21.2028  21.4331
    22.5881  22.7766

          k = 0.1366-0.0000 0.0000 ( 28725 PWs)   bands (ev):

   -60.3430 -34.5422 -34.3402 -34.2989 -13.6464 -12.4171  -5.1836  -2.6607
    -2.1901  -2.0190  -1.4429  -0.6505   0.1850   3.0273   3.0305   3.3013
     3.6379   6.0678   6.4639   7.4298   7.8932   9.4388  10.3456  10.4828
    11.3052  11.8210  12.0218  13.2260  13.2574  14.0507  15.5137  15.6639
    16.1152  16.7548  17.0875  18.3465  19.6920  20.2734  21.1333  21.7436
    22.0624  22.2624

          k = 0.1593-0.0000 0.0000 ( 28715 PWs)   bands (ev):

   -60.3410 -34.5383 -34.3588 -34.3038 -13.5735 -12.3869  -5.1085  -2.7902
    -2.3306  -1.9473  -1.5778  -0.6011   0.1381   2.9058   2.9874   3.2278
     3.7543   6.1673   6.5573   7.5767   8.1199   9.5172  10.3859  10.5476
    11.3526  11.7951  11.9878  13.2022  13.2180  14.1207  15.4321  15.5436
    15.8965  16.8215  17.2083  18.7732  19.9355  20.4177  21.0026  21.5449
    21.7157  21.8219

          k = 0.1821-0.0001 0.0000 ( 28729 PWs)   bands (ev):

   -60.3389 -34.5341 -34.3792 -34.3094 -13.4910 -12.3528  -5.0278  -2.9241
    -2.4670  -1.8692  -1.7314  -0.5646   0.0777   2.7925   2.9570   3.1525
     3.8795   6.2790   6.6640   7.7119   8.3901   9.6027  10.2896  10.6963
    11.4037  11.6387  12.1285  13.1598  13.2098  14.2067  15.2477  15.4750
    15.7470  16.8935  17.3585  19.1870  20.1828  20.5624  20.7770  21.0951
    21.1813  21.4746

          k = 0.2048-0.0001 0.0000 ( 28729 PWs)   bands (ev):

   -60.3365 -34.5295 -34.4011 -34.3157 -13.3996 -12.3150  -4.9448  -3.0572
    -2.5980  -1.9010  -1.7877  -0.5408   0.0041   2.6899   2.9413   3.0807
     4.0101   6.4028   6.7834   7.8445   8.6875   9.6922  10.1955  10.7342
    11.4536  11.6057  12.2140  13.1004  13.2658  14.3130  14.9588  15.4586
    15.6789  16.9694  17.5349  19.5675  20.2882  20.4782  20.5280  20.7220
    20.8305  21.1441

          k = 0.2276-0.0001 0.0000 ( 28727 PWs)   bands (ev):

   -60.3339 -34.5245 -34.4240 -34.3228 -13.3001 -12.2738  -4.8637  -3.1835
    -2.7233  -2.0826  -1.7070  -0.5297  -0.0808   2.5984   2.9409   3.0186
     4.1427   6.5385   6.9150   7.9804   8.9982   9.7803  10.1037  10.6630
    11.4960  11.6918  12.2386  13.0319  13.3934  14.4428  14.6249  15.4860
    15.6499  17.0488  17.7336  19.8740  19.9463  20.1093  20.1337  20.4533
    20.8182  21.1949

          k = 0.2504-0.0001 0.0000 ( 28721 PWs)   bands (ev):

   -60.3313 -34.5193 -34.4475 -34.3307 -13.1934 -12.2296  -4.7898  -3.2965
    -2.8440  -2.2706  -1.6328  -0.5309  -0.1724   2.5172   2.9556   2.9718
     4.2740   6.6860   7.0580   8.1225   9.3076   9.8574  10.0163  10.5558
    11.5246  11.8271  12.2302  12.9657  13.5414  14.3097  14.5958  15.5411
    15.6414  17.1331  17.9499  19.5064  19.6210  19.6878  19.9905  20.2364
    20.8168  21.0497

          k = 0.2731-0.0001 0.0000 ( 28728 PWs)   bands (ev):

   -60.3285 -34.5140 -34.4713 -34.3393 -13.0805 -12.1828  -4.7299  -3.3890
    -2.9632  -2.4577  -1.5730  -0.5442  -0.2634   2.4463   2.9442   2.9843
     4.4007   6.8450   7.2116   8.2721   9.5782   9.9063   9.9577  10.4737
    11.5366  11.9646  12.2202  12.9132  13.5369  14.1741  14.7673  15.6022
    15.6523  17.2275  18.1774  19.0533  19.1442  19.3447  19.5445  20.4211
    20.4778  20.6988

          k = 0.2959-0.0001 0.0000 ( 28741 PWs)   bands (ev):

   -60.3257 -34.5085 -34.4948 -34.3487 -12.9624 -12.1339  -4.6909  -3.4537
    -3.0877  -2.6327  -1.5375  -0.5693  -0.3442   2.3874   2.9368   3.0252
     4.5199   7.0148   7.3748   8.4295   9.6596   9.9091  10.0656  10.4528
    11.5382  12.0887  12.2194  12.8816  13.2789  14.3111  14.9481  15.6450
    15.6894  17.3383  18.3903  18.6183  18.6899  19.0213  19.1299  20.0027
    20.2648  20.6971

          k = 0.3186-0.0001 0.0000 ( 28713 PWs)   bands (ev):

   -60.3229 -34.5177 -34.5030 -34.3587 -12.8403 -12.0832  -4.6776  -3.4861
    -3.2277  -2.7818  -1.5365  -0.6060  -0.4044   2.3446   2.9474   3.0763
     4.6291   7.1947   7.5466   8.5946   9.5638   9.8737  10.3151  10.4934
    11.5416  12.2007  12.2132  12.8716  12.9685  14.5255  15.1192  15.6553
    15.7632  17.4644  18.1432  18.2267  18.6460  18.6807  18.8438  19.5857
    19.8517  20.8634

          k = 0.3414-0.0001 0.0000 ( 28729 PWs)   bands (ev):

   -60.3201 -34.5396 -34.4976 -34.3695 -12.7155 -12.0314  -4.6900  -3.4869
    -3.3897  -2.8948  -1.5765  -0.6537  -0.4375   2.3226   2.9719   3.1352
     4.7265   7.3832   7.7256   8.7665   9.4207   9.8295  10.5617  10.5707
    11.5538  12.1618  12.3101  12.7297  12.8782  14.7318  15.2303  15.6619
    15.8784  17.5742  17.7277  17.8037  18.2501  18.6872  18.8720  19.2040
    19.4746  20.7493

          k = 0.3642-0.0001 0.0000 ( 28727 PWs)   bands (ev):

   -60.3174 -34.5600 -34.4922 -34.3809 -12.5895 -11.9789  -4.7225  -3.5701
    -3.4624  -2.9723  -1.6561  -0.7120  -0.4441   2.3254   3.0059   3.1991
     4.8112   7.5782   7.9107   8.9429   9.2580   9.7985  10.6675  10.7573
    11.5559  12.0624  12.4269  12.6279  12.8944  14.9093  15.1964  15.7445
    16.0146  17.3257  17.4198  17.5913  17.8791  18.6736  18.7176  19.0012
    19.3134  20.5200

          k = 0.3869-0.0001 0.0000 ( 28715 PWs)   bands (ev):

   -60.3147 -34.5788 -34.4870 -34.3930 -12.4638 -11.9263  -4.7663  -3.7597
    -3.4224  -3.0210  -1.7676  -0.7802  -0.4302   2.3547   3.0448   3.2649
     4.8835   7.7755   8.1003   9.0688   9.1393   9.7917  10.7772  10.8503
    11.5154  12.0478  12.5557  12.6193  12.9158  15.0368  15.0626  15.8865
    16.0996  16.9318  17.1298  17.4390  17.5796  18.3642  18.7067  18.8028
    19.5038  20.3293

          k = 0.4097-0.0001 0.0000 ( 28687 PWs)   bands (ev):

   -60.3122 -34.5955 -34.4821 -34.4057 -12.3399 -11.8743  -4.8127  -3.9502
    -3.3766  -3.0469  -1.9016  -0.8573  -0.4018   2.4084   3.0855   3.3293
     4.9450   7.9665   8.2927   8.9104   9.3050   9.8149  10.7893  10.8990
    11.5098  12.1563  12.6483  12.6885  12.9483  14.8160  15.2041  16.0190
    16.0250  16.5482  16.9848  17.1693  17.3543  18.0259  18.4495  18.9835
    19.7363  20.1834

          k = 0.4324-0.0001 0.0000 ( 28673 PWs)   bands (ev):

   -60.3098 -34.6100 -34.4774 -34.4189 -12.2196 -11.8234  -4.8547  -4.1361
    -3.3329  -3.0538  -2.0505  -0.9425  -0.3624   2.4799   3.1273   3.3887
     4.9984   8.1286   8.4858   8.7676   9.4663   9.8709  10.6363  11.0339
    11.5792  12.3176  12.7015  12.7873  13.0252  14.5671  15.3349  15.8007
    16.0782  16.1849  16.8970  16.9516  17.1172  17.7113  18.3161  19.0974
    19.9465  19.9602

          k = 0.4552-0.0001 0.0000 ( 28676 PWs)   bands (ev):

   -60.3076 -34.6219 -34.4730 -34.4327 -12.1047 -11.7743  -4.8867  -4.3135
    -3.2968  -3.0441  -2.2084  -1.0343  -0.3128   2.5563   3.1741   3.4394
     5.0474   8.2036   8.6776   8.7032   9.5888   9.9611  10.5127  11.1824
    11.6823  12.4756  12.7911  12.8179  13.1738  14.3093  15.3748  15.5691
    15.8807  16.0002  16.7374  16.8094  16.9181  17.4089  18.3330  19.0702
    19.7196  20.1067

          k = 0.4780-0.0001 0.0000 ( 28676 PWs)   bands (ev):

   -60.3055 -34.6313 -34.4691 -34.4468 -11.9967 -11.7276  -4.9046  -4.4796
    -3.2723  -3.0199  -2.3713  -1.1314  -0.2524   2.6186   3.2356   3.4784
     5.0957   8.1476   8.7439   8.8660   9.6511  10.0857  10.5020  11.3432
    11.7973  12.5951  12.8079  12.9338  13.3568  14.0583  15.1428  15.3688
    15.8076  15.8265  16.5119  16.5644  16.9125  17.1161  18.4251  18.9375
    19.5156  19.9869

          k = 0.5007-0.0002 0.0000 ( 28672 PWs)   bands (ev):

   -60.3037 -34.6379 -34.4655 -34.4613 -11.8974 -11.6841  -4.9053  -4.6322
    -3.2617  -2.9829  -2.5356  -1.2322  -0.1809   2.6472   3.3229   3.5036
     5.1465   8.0276   8.7885   9.0490   9.6961  10.2437  10.6138  11.5120
    11.9171  12.6809  12.7771  13.1145  13.5283  13.8427  14.8556  15.0677
    15.5748  15.9283  16.2837  16.2970  16.8473  16.9417  18.4985  18.7703
    19.3175  19.7893

          k = 0.5235-0.0002 0.0000 ( 28656 PWs)   bands (ev):

   -60.3021 -34.6417 -34.4761 -34.4624 -11.8083 -11.6444  -4.8866  -4.7695
    -3.2672  -2.9350  -2.6968  -1.3347  -0.0993   2.6337   3.4378   3.5144
     5.2013   7.8987   8.7590   9.2254   9.8008  10.4324  10.8011  11.6796
    12.0395  12.7333  12.7489  13.3065  13.5299  13.8123  14.5827  14.7601
    15.3456  15.8876  16.0335  16.1749  16.6563  16.9372  18.5008  18.6052
    19.1166  19.6271

          k = 0.5462-0.0002 0.0000 ( 28642 PWs)   bands (ev):

   -60.3007 -34.6427 -34.4910 -34.4597 -11.7304 -11.6091  -4.8901  -4.8471
    -3.2924  -2.8783  -2.8484  -1.4369  -0.0100   2.5835   3.5119   3.5704
     5.2601   7.7815   8.6628   9.3935   9.9750  10.6472  11.0277  11.8293
    12.1637  12.6825  12.8000  13.3922  13.4945  13.9260  14.3395  14.4661
    15.1473  15.6859  15.7828  16.0677  16.6674  16.8863  18.4303  18.4478
    18.9115  19.4974

          k = 0.5690-0.0002 0.0000 ( 28636 PWs)   bands (ev):

   -60.2996 -34.6411 -34.5060 -34.4575 -11.6649 -11.5786  -4.9928  -4.7866
    -3.3450  -2.9787  -2.8158  -1.5360   0.0828   2.5083   3.4989   3.7068
     5.3209   7.6863   8.5348   9.5512  10.1884  10.8820  11.2757  11.9368
    12.2868  12.6294  12.8285  13.3060  13.6607  13.9789  14.1341  14.2041
    15.0023  15.4767  15.5554  15.8609  16.8073  16.8244  18.2900  18.3201
    18.7047  19.3755

          k = 0.5918-0.0002 0.0000 ( 28604 PWs)   bands (ev):

   -60.2987 -34.6370 -34.5207 -34.4557 -11.6121 -11.5535  -5.0770  -4.7060
    -3.4334  -3.0750  -2.7510  -1.6288   0.1735   2.4211   3.4788   3.8343
     5.3803   7.6207   8.3969   9.6945  10.4135  11.1275  11.5351  11.9851
    12.3952  12.5717  12.8414  13.3185  13.7294  13.9163  13.9244  14.1050
    14.9018  15.2865  15.3698  15.6366  16.7387  17.0063  18.1266  18.2091
    18.5015  19.2445

          k = 0.6145-0.0002 0.0000 ( 28620 PWs)   bands (ev):

   -60.2980 -34.6308 -34.5349 -34.4543 -11.5721 -11.5340  -5.1421  -4.6085
    -3.5516  -3.1371  -2.6889  -1.7110   0.2551   2.3349   3.4560   3.9424
     5.4341   7.5910   8.2592   9.8171  10.6278  11.3682  11.7962  11.9910
    12.4587  12.5057  12.8713  13.4314  13.6279  13.7080  13.7838  14.2214
    14.7846  15.1155  15.2454  15.4216  16.7215  17.1603  17.9636  18.1307
    18.3090  19.1041

          k = 0.6373-0.0002 0.0000 ( 28618 PWs)   bands (ev):

   -60.2975 -34.6233 -34.5480 -34.4534 -11.5447 -11.5203  -5.1879  -4.5017
    -3.6786  -3.1766  -2.6361  -1.7768   0.3201   2.2621   3.4348   4.0230
     5.4778   7.6001   8.1274   9.9109  10.8077  11.5716  12.0015  12.0377
    12.4412  12.4746  12.9305  13.4799  13.5437  13.5610  13.6537  14.4068
    14.6254  14.9613  15.1628  15.2221  16.7734  17.2532  17.8186  18.1069
    18.1349  18.9705

          k = 0.6600-0.0002 0.0000 ( 28610 PWs)   bands (ev):

   -60.2973 -34.6161 -34.5584 -34.4529 -11.5291 -11.5123  -5.2148  -4.4047
    -3.7870  -3.2009  -2.6001  -1.8196   0.3615   2.2137   3.4194   4.0715
     5.5070   7.6424   8.0116   9.9685  10.9278  11.6888  12.0540  12.1944
    12.3976  12.5191  12.9667  13.3602  13.4243  13.4408  13.8140  14.4651
    14.6047  14.8358  15.0351  15.0957  16.8607  17.2832  17.7252  17.9894
    18.1257  18.8732

          k = 0.6828-0.0002 0.0000 ( 28574 PWs)   bands (ev):

   -60.2972 -34.6127 -34.5627 -34.4527 -11.5243 -11.5099  -5.2234  -4.3603
    -3.8338  -3.2102  -2.5872  -1.8344   0.3756   2.1966   3.4134   4.0869
     5.5177   7.6775   7.9528   9.9871  10.9686  11.7185  12.0960  12.2290
    12.3854  12.5733  12.9846  13.2796  13.3498  13.4296  13.9063  14.3892
    14.7217  14.8268  14.8805  15.0627  16.9046  17.2846  17.7103  17.9132
    18.1407  18.8385

          k = 0.6771-0.0101 0.0000 ( 28588 PWs)   bands (ev):

   -60.2972 -34.6137 -34.5615 -34.4528 -11.5254 -11.5105  -5.2213  -4.3725
    -3.8218  -3.2072  -2.5904  -1.8309   0.3722   2.2008   3.4151   4.0833
     5.5149   7.6642   7.9717   9.9830  10.9590  11.7126  12.0794  12.2238
    12.3896  12.5589  12.9644  13.3099  13.3718  13.4324  13.8834  14.4047
    14.7149  14.7695  14.9585  15.0750  16.8935  17.2859  17.7015  17.9440
    18.1361  18.8467

          k = 0.6714-0.0199 0.0000 ( 28610 PWs)   bands (ev):

   -60.2973 -34.6165 -34.5581 -34.4529 -11.5287 -11.5122  -5.2151  -4.4057
    -3.7905  -3.1967  -2.5991  -1.8211   0.3629   2.2129   3.4204   4.0725
     5.5064   7.6282   8.0247   9.9712  10.9310  11.6954  12.0275  12.2066
    12.4071  12.5281  12.9046  13.3400  13.4347  13.4906  13.8276  14.4335
    14.6646  14.7422  15.0782  15.1178  16.8636  17.2906  17.6743  18.0334
    18.1228  18.8705

          k = 0.6657-0.0297 0.0000 ( 28618 PWs)   bands (ev):

   -60.2974 -34.6206 -34.5529 -34.4531 -11.5340 -11.5152  -5.2049  -4.4536
    -3.7493  -3.1759  -2.6125  -1.8061   0.3483   2.2320   3.4297   4.0551
     5.4922   7.5797   8.1007   9.9532  10.8874  11.6674  11.9414  12.1749
    12.4424  12.4934  12.8222  13.3151  13.5283  13.6304  13.7598  14.4548
    14.5840  14.7581  15.1944  15.2130  16.8219  17.2989  17.6409  18.1026
    18.1611  18.9071

          k = 0.6600-0.0396 0.0000 ( 28604 PWs)   bands (ev):

   -60.2975 -34.6255 -34.5464 -34.4533 -11.5411 -11.5192  -5.1911  -4.5104
    -3.7070  -3.1419  -2.6296  -1.7870   0.3294   2.2573   3.4433   4.0319
     5.4721   7.5256   8.1921   9.9302  10.8311  11.6275  11.8319  12.1281
    12.4598  12.4939  12.7260  13.2724  13.6154  13.7192  13.8031  14.4622
    14.5036  14.7856  15.3009  15.3622  16.7747  17.3094  17.6089  18.0785
    18.3130  18.9540

          k = 0.6543-0.0494 0.0000 ( 28602 PWs)   bands (ev):

   -60.2976 -34.6309 -34.5392 -34.4536 -11.5499 -11.5242  -5.1737  -4.5721
    -3.6705  -3.0920  -2.6492  -1.7651   0.3074   2.2877   3.4614   4.0035
     5.4461   7.4692   8.2950   9.9035  10.7648  11.5668  11.7180  12.0681
    12.4261  12.5567  12.6185  13.2276  13.5827  13.8178  13.9908  14.4279
    14.4584  14.8191  15.4287  15.5255  16.7274  17.3196  17.5813  18.0529
    18.4810  19.0089

          k = 0.6487-0.0593 0.0000 ( 28602 PWs)   bands (ev):

   -60.2978 -34.6365 -34.5313 -34.4540 -11.5601 -11.5301  -5.1532  -4.6362
    -3.6432  -3.0254  -2.6706  -1.7415   0.2831   2.3223   3.4844   3.9707
     5.4145   7.4121   8.4069   9.8744  10.6908  11.4639  11.6290  11.9983
    12.3889  12.5010  12.6255  13.1881  13.5203  13.9645  14.1789  14.3657
    14.4485  14.8569  15.5687  15.7023  16.6848  17.3267  17.5596  18.0278
    18.6604  19.0701

          k = 0.6430-0.0691 0.0000 ( 28603 PWs)   bands (ev):

   -60.2980 -34.6422 -34.5230 -34.4544 -11.5716 -11.5368  -5.1297  -4.7014
    -3.6258  -2.9432  -2.6927  -1.7170   0.2576   2.3598   3.5124   3.9343
     5.3775   7.3552   8.5261   9.8437  10.6108  11.3210  11.5683  11.9212
    12.3449  12.3772  12.6938  13.1564  13.4658  14.1218  14.2516  14.4286
    14.4375  14.9003  15.7121  15.8912  16.6523  17.3281  17.5444  18.0040
    18.8478  19.1364

          k = 0.6373-0.0790 0.0000 ( 28610 PWs)   bands (ev):

   -60.2983 -34.6479 -34.5145 -34.4548 -11.5841 -11.5441  -5.1037  -4.7665
    -3.6169  -2.8479  -2.7150  -1.6927   0.2315   2.3993   3.5455   3.8949
     5.3353   7.2989   8.6513   9.8122  10.5260  11.1595  11.5183  11.8377
    12.2435  12.3016  12.7534  13.1322  13.4287  14.1990  14.2783  14.4339
    14.6188  14.9558  15.8487  16.0908  16.6379  17.3220  17.5361  17.9816
    19.0403  19.2069

          k = 0.6316-0.0888 0.0000 ( 28618 PWs)   bands (ev):

   -60.2985 -34.6536 -34.5058 -34.4553 -11.5976 -11.5521  -5.0754  -4.8309
    -3.6147  -2.7424  -2.7368  -1.6690   0.2057   2.4400   3.5838   3.8532
     5.2885   7.2437   8.7813   9.7805  10.4376  10.9893  11.4720  11.7474
    12.1161  12.2494  12.7952  13.1131  13.4168  14.1396  14.3759  14.4954
    14.7964  15.0441  15.9653  16.2997  16.6534  17.3078  17.5355  17.9599
    19.2349  19.2798

          k = 0.6259-0.0987 0.0000 ( 28624 PWs)   bands (ev):

   -60.2988 -34.6592 -34.4970 -34.4558 -11.6117 -11.5606  -5.0452  -4.8940
    -3.6174  -2.7576  -2.6290  -1.6465   0.1805   2.4810   3.6273   3.8099
     5.2375   7.1897   8.9148   9.7490  10.3461  10.8146  11.4276  11.6488
    11.9953  12.1952  12.8122  13.0966  13.4351  14.0820  14.3869  14.6497
    14.9172  15.2004  16.0486  16.5164  16.7106  17.2859  17.5434  17.9380
    19.3521  19.4276

          k = 0.6202-0.1085 0.0000 ( 28634 PWs)   bands (ev):

   -60.2991 -34.6646 -34.4882 -34.4564 -11.6263 -11.5694  -5.0135  -4.9556
    -3.6237  -2.7771  -2.5099  -1.6257   0.1563   2.5214   3.6760   3.7655
     5.1829   7.1372   9.0505   9.7180  10.2522  10.6376  11.3846  11.5413
    11.8862  12.1400  12.8048  13.0806  13.4805  14.0268  14.3912  14.8170
    14.9943  15.4105  16.0958  16.7394  16.8113  17.2574  17.5612  17.9154
    19.4193  19.6113

          k = 0.6145-0.1184 0.0000 ( 28646 PWs)   bands (ev):

   -60.2993 -34.6698 -34.4795 -34.4569 -11.6413 -11.5785  -5.0152  -4.9807
    -3.6326  -2.7948  -2.3865  -1.6069   0.1334   2.5608   3.7205   3.7297
     5.1254   7.0862   9.1866   9.6876  10.1570  10.4599  11.3429  11.4269
    11.7906  12.0849  12.7796  13.0638  13.5431  13.9741  14.4030  14.9832
    15.0587  15.6424  16.1185  16.9419  16.9667  17.2239  17.5922  17.8927
    19.4762  19.7736

          k = 0.6088-0.1282 0.0000 ( 28636 PWs)   bands (ev):

   -60.2996 -34.6749 -34.4709 -34.4575 -11.6564 -11.5878  -5.0728  -4.9472
    -3.6433  -2.8106  -2.2600  -1.5903   0.1119   2.5985   3.6757   3.7882
     5.0656   7.0368   9.3202   9.6575  10.0621  10.2831  11.3028  11.3099
    11.7073  12.0307  12.7440  13.0453  13.6114  13.9232  14.4273  15.1216
    15.1427  15.8841  16.1329  17.0825  17.1821  17.1997  17.6421  17.8728
    19.5186  19.8943

          k = 0.6031-0.1381 0.0000 ( 28642 PWs)   bands (ev):

   -60.2999 -34.6798 -34.4624 -34.4581 -11.6716 -11.5971  -5.1280  -4.9134
    -3.6553  -2.8243  -2.1316  -1.5761   0.0917   2.6339   3.6314   3.8513
     5.0042   6.9892   9.4452   9.6271   9.9725  10.1088  11.1954  11.2641
    11.6342  11.9783  12.7035  13.0251  13.6759  13.8738  14.4682  15.1860
    15.2890  16.1308  16.1535  17.1471  17.2138  17.4161  17.7202  17.8647
    19.5437  19.9568

          k = 0.5974-0.1479 0.0000 ( 28648 PWs)   bands (ev):

   -60.3002 -34.6844 -34.4586 -34.4542 -11.6866 -11.6064  -5.1806  -4.8796
    -3.6682  -2.8356  -2.0022  -1.5643   0.0727   2.6666   3.5883   3.9185
     4.9421   6.9434   9.5449   9.5943   9.9036   9.9400  11.0885  11.2272
    11.5691  11.9280  12.6612  13.0031  13.7300  13.8255  14.5283  15.2524
    15.4137  16.1933  16.3785  17.1094  17.3202  17.5938  17.8353  17.9037
    19.5512  19.9683

          k = 0.5917-0.1578 0.0000 ( 28658 PWs)   bands (ev):

   -60.3005 -34.6888 -34.4592 -34.4463 -11.7013 -11.6155  -5.2306  -4.8464
    -3.6815  -2.8446  -1.8726  -1.5550   0.0546   2.6961   3.5469   3.9894
     4.8800   6.8996   9.5527   9.5767   9.7843   9.8958  10.9936  11.1921
    11.5106  11.8803  12.6192  12.9799  13.7707  13.7779  14.6081  15.3203
    15.5083  16.2634  16.6179  17.0819  17.3986  17.6658  17.9857  18.0536
    19.5425  19.9495

          k = 0.5861-0.1676 0.0000 ( 28662 PWs)   bands (ev):

   -60.3008 -34.6929 -34.4597 -34.4386 -11.7157 -11.6245  -5.2777  -4.8140
    -3.6949  -2.8512  -1.7436  -1.5481   0.0372   2.7222   3.5076   4.0633
     4.8186   6.8576   9.4809   9.5255   9.6636   9.9614  10.9154  11.1590
    11.4577  11.8355  12.5786  12.9556  13.7308  13.7982  14.7051  15.3888
    15.5698  16.3678  16.8083  17.1052  17.4564  17.6705  18.1597  18.2770
    19.5201  19.9173

          k = 0.5804-0.1774 0.0000 ( 28666 PWs)   bands (ev):

   -60.3011 -34.6968 -34.4603 -34.4314 -11.7295 -11.6331  -5.3218  -4.7828
    -3.7083  -2.8555  -1.6159  -1.5434   0.0201   2.7445   3.4710   4.1394
     4.7588   6.8177   9.3598   9.4379   9.5981  10.0492  10.8596  11.1278
    11.4101  11.7941  12.5402  12.9309  13.6840  13.8149  14.8155  15.4565
    15.6037  16.5020  16.8635  17.2651  17.5016  17.6593  18.3439  18.5238
    19.4871  19.8822

          k = 0.5747-0.1873 0.0000 ( 28678 PWs)   bands (ev):

   -60.3013 -34.7003 -34.4608 -34.4246 -11.7426 -11.6414  -5.3628  -4.7532
    -3.7214  -2.8575  -1.5409  -1.4903   0.0028   2.7629   3.4375   4.2167
     4.7017   6.7800   9.2153   9.3399   9.5629  10.1264  10.8334  11.0988
    11.3674  11.7561  12.5043  12.9060  13.6373  13.8235  14.9347  15.5220
    15.6195  16.6569  16.8412  17.5012  17.5395  17.6501  18.5261  18.7801
    19.4465  19.8533

          k = 0.5690-0.1971 0.0000 ( 28666 PWs)   bands (ev):

   -60.3016 -34.7037 -34.4613 -34.4182 -11.7549 -11.6492  -5.4007  -4.7254
    -3.7339  -2.8575  -1.5402  -1.3675  -0.0152   2.7772   3.4075   4.2936
     4.6484   6.7444   9.0678   9.2406   9.5385  10.1777  10.8430  11.0721
    11.3298  11.7221  12.4712  12.8812  13.5908  13.8265  15.0581  15.5835
    15.6255  16.8018  16.8246  17.5727  17.6260  17.7751  18.6931  19.0413
    19.4012  19.8411

          k = 0.5633-0.2070 0.0000 ( 28654 PWs)   bands (ev):

   -60.3018 -34.7067 -34.4617 -34.4123 -11.7664 -11.6564  -5.4352  -4.6997
    -3.7458  -2.8558  -1.5411  -1.2481  -0.0345   2.7877   3.3812   4.3671
     4.6015   6.7112   8.9243   9.1440   9.5190  10.1997  10.8869  11.0476
    11.2978  11.6923  12.4410  12.8568  13.5447  13.8259  15.1808  15.6286
    15.6393  16.7590  16.9992  17.6026  17.6257  18.0369  18.8284  19.3043
    19.3549  19.8589

          k = 0.5576-0.2168 0.0000 ( 28646 PWs)   bands (ev):

   -60.3020 -34.7094 -34.4621 -34.4070 -11.7769 -11.6631  -5.4663  -4.6763
    -3.7569  -2.8525  -1.5433  -1.1329  -0.0557   2.7944   3.3588   4.4282
     4.5694   6.6805   8.7880   9.0527   9.5026  10.1988  10.9538  11.0255
    11.2727  11.6675  12.4140  12.8330  13.4991  13.8229  15.2963  15.6353
    15.6878  16.7176  17.1760  17.6284  17.6310  18.3032  18.9159  19.3055
    19.5709  19.9158

          k = 0.5519-0.2267 0.0000 ( 28642 PWs)   bands (ev):

   -60.3022 -34.7118 -34.4625 -34.4022 -11.7864 -11.6691  -5.4940  -4.6554
    -3.7669  -2.8482  -1.5465  -1.0226  -0.0792   2.7978   3.3402   4.4498
     4.5782   6.6526   8.6609   8.9685   9.4887  10.1851  11.0058  11.0268
    11.2581  11.6484  12.3901  12.8100  13.4547  13.8187  15.3937  15.6556
    15.7278  16.6800  17.3486  17.6374  17.6613  18.5665  18.9503  19.2615
    19.8276  19.9935

          k = 0.5462-0.2365 0.0000 ( 28638 PWs)   bands (ev):

   -60.3024 -34.7139 -34.4628 -34.3979 -11.7948 -11.6744  -5.5181  -4.6371
    -3.7759  -2.8432  -1.5503  -0.9180  -0.1056   2.7987   3.3252   4.4310
     4.6278   6.6276   8.5451   8.8930   9.4769  10.1659  10.9887  11.0856
    11.2629  11.6364  12.3693  12.7878  13.4121  13.8140  15.4581  15.7025
    15.7587  16.6478  17.5015  17.6527  17.7069  18.8162  18.9415  19.2285
    19.9990  20.0198

          k = 0.5405-0.2464 0.0000 ( 28625 PWs)   bands (ev):

   -60.3025 -34.7157 -34.4631 -34.3943 -11.8020 -11.6790  -5.5386  -4.6215
    -3.7837  -2.8380  -1.5543  -0.8197  -0.1354   2.7976   3.3134   4.4036
     4.6851   6.6058   8.4425   8.8274   9.4671  10.1459  10.9741  11.1137
    11.2941  11.6336  12.3518  12.7667  13.3723  13.8094  15.4882  15.7750
    15.7806  16.6217  17.5961  17.6729  17.8045  18.9043  19.0077  19.2460
    19.9714  19.9801

          k = 0.5348-0.2562 0.0000 ( 28600 PWs)   bands (ev):

   -60.3026 -34.7172 -34.4633 -34.3914 -11.8079 -11.6828  -5.5555  -4.6087
    -3.7901  -2.8330  -1.5582  -0.7288  -0.1687   2.7955   3.3045   4.3781
     4.7381   6.5874   8.3549   8.7725   9.4591  10.1277  10.9620  11.1186
    11.3369  11.6415  12.3374  12.7471  13.3367  13.8051  15.4992  15.7947
    15.8549  16.6020  17.6328  17.6961  17.9512  18.8500  19.0538  19.3870
    19.8933  19.9539

          k = 0.5292-0.2661 0.0000 ( 28593 PWs)   bands (ev):

   -60.3027 -34.7183 -34.4635 -34.3890 -11.8126 -11.6858  -5.5686  -4.5987
    -3.7952  -2.8285  -1.5616  -0.6465  -0.2050   2.7929   3.2980   4.3571
     4.7826   6.5729   8.2843   8.7291   9.4529  10.1126  10.9527  11.1153
    11.3721  11.6595  12.3262  12.7298  13.3068  13.8015  15.5023  15.8025
    15.9277  16.5880  17.6480  17.7193  18.1082  18.7847  19.0370  19.5335
    19.8098  19.9913

          k = 0.5235-0.2759 0.0000 ( 28608 PWs)   bands (ev):

   -60.3028 -34.7191 -34.4636 -34.3873 -11.8160 -11.6879  -5.5781  -4.5916
    -3.7989  -2.8251  -1.5643  -0.5756  -0.2425   2.7906   3.2936   4.3417
     4.8161   6.5623   8.2324   8.6978   9.4485  10.1014  10.9460  11.1108
    11.3940  11.6820  12.3183  12.7159  13.2840  13.7988  15.5027  15.8062
    15.9848  16.5789  17.6550  17.7394  18.2592  18.7097  19.0146  19.5989
    19.7352  20.1211

          k = 0.5178-0.2858 0.0000 ( 28636 PWs)   bands (ev):

   -60.3028 -34.7196 -34.4637 -34.3863 -11.8180 -11.6892  -5.5837  -4.5873
    -3.8012  -2.8229  -1.5660  -0.5222  -0.2755   2.7890   3.2911   4.3323
     4.8369   6.5558   8.2006   8.6788   9.4458  10.0945  10.9419  11.1074
    11.4050  11.7001  12.3135  12.7067  13.2696  13.7972  15.5023  15.8075
    16.0212  16.5738  17.6581  17.7531  18.3968  18.6232  18.9985  19.6128
    19.6829  20.2828

          k = 0.5121-0.2956 0.0000 ( 28640 PWs)   bands (ev):

   -60.3028 -34.7198 -34.4638 -34.3860 -11.8187 -11.6897  -5.5856  -4.5859
    -3.8019  -2.8222  -1.5666  -0.5006  -0.2903   2.7884   3.2903   4.3291
     4.8440   6.5537   8.1899   8.6725   9.4450  10.0922  10.9406  11.1063
    11.4082  11.7070  12.3119  12.7035  13.2648  13.7966  15.5021  15.8079
    16.0336  16.5722  17.6590  17.7580  18.5025  18.5356  18.9928  19.6140
    19.6640  20.3653

          k = 0.4950-0.2858 0.0000 ( 28618 PWs)   bands (ev):

   -60.3030 -34.7186 -34.4640 -34.3857 -11.8262 -11.6924  -5.5783  -4.5787
    -3.7978  -2.8187  -1.5641  -0.5046  -0.2989   2.7860   3.2809   4.3253
     4.8421   6.5783   8.1844   8.6575   9.4418  10.0915  10.9246  10.9631
    11.5729  11.7212  12.3351  12.6281  13.3598  13.7908  15.5253  15.7623
    16.0173  16.5966  17.6440  17.7327  18.4972  18.5229  18.9713  19.6157
    19.6513  20.3671

          k = 0.4779-0.2759 0.0000 ( 28627 PWs)   bands (ev):

   -60.3033 -34.7152 -34.4647 -34.3849 -11.8487 -11.7007  -5.5566  -4.5575
    -3.7856  -2.8085  -1.5564  -0.5166  -0.3239   2.7792   3.2538   4.3138
     4.8365   6.6505   8.1690   8.6146   9.4299  10.0757  10.7711  10.8852
    11.7635  11.8290  12.3928  12.4949  13.5619  13.7819  15.5892  15.6484
    15.9688  16.6445  17.6010  17.6575  18.4819  18.4836  18.9182  19.6212
    19.6233  20.3736

          k = 0.4609-0.2660 0.0000 ( 28654 PWs)   bands (ev):

   -60.3040 -34.7095 -34.4660 -34.3836 -11.8854 -11.7143  -5.5211  -4.5223
    -3.7662  -2.7914  -1.5435  -0.5367  -0.3631   2.7687   3.2115   4.2939
     4.8270   6.7660   8.1469   8.5492   9.4032  10.0094  10.6424  10.8413
    11.8330  12.0187  12.4500  12.4565  13.7927  13.7931  15.5050  15.6787
    15.8900  16.6718  17.5345  17.5365  18.4139  18.4579  18.8612  19.6038
    19.6319  20.3885

          k = 0.4438-0.2562 0.0000 ( 28652 PWs)   bands (ev):

   -60.3048 -34.7015 -34.4677 -34.3817 -11.9356 -11.7329  -5.4730  -4.4737
    -3.7408  -2.7676  -1.5254  -0.5649  -0.4133   2.7557   3.1576   4.2652
     4.8134   6.9182   8.1222   8.4672   9.3555   9.8747  10.5918  10.8102
    11.9281  12.0129  12.4945  12.6382  13.8508  14.0175  15.3653  15.7722
    15.7840  16.6497  17.3676  17.4636  18.3122  18.4262  18.8273  19.6168
    19.6515  20.4162

          k = 0.4267-0.2463 0.0000 ( 28697 PWs)   bands (ev):

   -60.3059 -34.6915 -34.4698 -34.3793 -11.9979 -11.7563  -5.4135  -4.4123
    -3.7114  -2.7371  -1.5018  -0.6014  -0.4699   2.7417   3.0958   4.2268
     4.7957   7.0993   8.0982   8.3740   9.2853   9.7003  10.5789  10.8005
    11.9443  12.0467  12.4896  12.9346  13.9719  14.1993  15.2651  15.6540
    15.8445  16.5757  17.1625  17.3993  18.1864  18.3883  18.8256  19.6754
    19.6884  20.4602

          k = 0.4097-0.2365 0.0000 ( 28688 PWs)   bands (ev):

   -60.3073 -34.6794 -34.4724 -34.3765 -12.0710 -11.7839  -5.3444  -4.3390
    -3.6803  -2.7000  -1.4727  -0.6463  -0.5277   2.7284   3.0294   4.1782
     4.7734   7.3000   8.0765   8.2740   9.1976   9.5174  10.5610  10.8113
    11.9046  12.1863  12.4462  13.2434  14.1512  14.2985  15.2424  15.5050
    15.8703  16.4779  16.9259  17.3518  18.0645  18.3452  18.8408  19.7563
    19.7799  20.5230

          k = 0.3926-0.2266 0.0000 ( 28698 PWs)   bands (ev):

   -60.3088 -34.6655 -34.4753 -34.3732 -12.1534 -11.8153  -5.2677  -4.2545
    -3.6499  -2.6566  -1.4378  -0.6993  -0.5811   2.7175   2.9611   4.1190
     4.7464   7.5068   8.0558   8.1744   9.1032   9.3424  10.5193  10.8340
    11.9099  12.3438  12.3822  13.5062  14.3348  14.3686  15.2842  15.3413
    15.8397  16.4149  16.6651  17.2954  18.0022  18.2973  18.8459  19.8690
    19.9237  20.6054

          k = 0.3755-0.2168 0.0000 ( 28698 PWs)   bands (ev):

   -60.3105 -34.6497 -34.4787 -34.3695 -12.2435 -11.8500  -5.1856  -4.1599
    -3.6227  -2.6070  -1.3972  -0.7603  -0.6245   2.7106   2.8931   4.0495
     4.7143   7.6877   8.0307   8.0996   9.0169   9.1834  10.4545  10.8565
    11.9527  12.3173  12.5157  13.6172  14.4439  14.5936  15.1677  15.3080
    15.7718  16.3877  16.4598  17.1837  18.0570  18.2446  18.8220  20.0308
    20.0979  20.7076

          k = 0.3585-0.2069 0.0000 ( 28692 PWs)   bands (ev):

   -60.3123 -34.6324 -34.4823 -34.3654 -12.3397 -11.8874  -5.1007  -4.0563
    -3.6008  -2.5513  -1.3508  -0.8288  -0.6528   2.7090   2.8274   3.9704
     4.6767   7.7470   7.9922   8.1358   8.9552   9.0454  10.3770  10.8661
    12.0151  12.2683  12.6978  13.5372  14.6929  14.7723  14.9886  15.2794
    15.7240  16.1012  16.6406  17.0189  18.1868  18.2244  18.7658  20.2330
    20.2937  20.8287

          k = 0.3414-0.1971 0.0000 ( 28714 PWs)   bands (ev):

   -60.3144 -34.6136 -34.4863 -34.3611 -12.4405 -11.9269  -5.0163  -3.9449
    -3.5847  -2.4898  -1.2988  -0.9041  -0.6621   2.7138   2.7656   3.8829
     4.6335   7.6668   7.9313   8.2865   8.9323   8.9355  10.2987  10.8525
    12.0769  12.2468  12.8847  13.3611  14.8077  14.8208  14.9328  15.3094
    15.7832  15.8135  16.8388  16.9205  18.1237  18.4665  18.6832  20.4599
    20.5013  20.9678

          k = 0.3243-0.1872 0.0000 ( 28710 PWs)   bands (ev):

   -60.3165 -34.5936 -34.4905 -34.3564 -12.5444 -11.9680  -4.9363  -3.8267
    -3.5733  -2.4229  -1.2414  -0.9855  -0.6500   2.7091   2.7259   3.7886
     4.5843   7.5412   7.8443   8.4272   8.8755   8.9548  10.2287  10.8113
    12.1172  12.2565  13.0690  13.1594  14.6295  14.7204  14.9609  15.5337
    15.5943  15.9478  16.6937  17.2571  18.0547  18.5832  18.7569  20.6933
    20.7050  21.1237

          k = 0.3073-0.1774 0.0000 ( 28712 PWs)   bands (ev):

   -60.3188 -34.5726 -34.4949 -34.3515 -12.6502 -12.0102  -4.8653  -3.7029
    -3.5630  -2.3509  -1.1794  -1.0719  -0.6162   2.6600   2.7452   3.6899
     4.5289   7.4019   7.7351   8.4731   8.9075   9.0198  10.1725  10.7453
    12.1139  12.2920  12.9749  13.2389  14.4563  14.5406  14.9212  15.2749
    15.9964  16.0538  16.6998  17.6208  17.9796  18.4787  19.0803  20.8643
    20.9152  21.2950

          k = 0.2902-0.1675 0.0000 ( 28726 PWs)   bands (ev):

   -60.3211 -34.5508 -34.4994 -34.3464 -12.7566 -12.0528  -4.8088  -3.5746
    -3.5483  -2.2741  -1.1621  -1.1134  -0.5624   2.6196   2.7722   3.5890
     4.4674   7.2581   7.6113   8.4283   9.0072   9.1191  10.1313  10.6619
    12.0507  12.3406  12.8408  13.3749  14.2909  14.3348  14.8992  15.0575
    15.9812  16.4329  16.9405  17.8983  17.9597  18.4153  19.4273  20.8943
    21.1107  21.4340

          k = 0.2731-0.1577 0.0000 ( 28710 PWs)   bands (ev):

   -60.3235 -34.5284 -34.5041 -34.3412 -12.8624 -12.0955  -4.7723  -3.5225
    -3.4429  -2.1931  -1.2550  -1.0449  -0.4917   2.5898   2.8064   3.4887
     4.3998   7.1141   7.4799   8.3484   9.1037   9.2427  10.1019  10.5710
    11.9379  12.3838  12.7664  13.4459  14.1339  14.1372  14.9075  14.9131
    15.8335  16.8870  17.2987  17.8108  18.0665  18.5992  19.7898  20.8017
    21.2714  21.6172

          k = 0.2560-0.1478 0.0000 ( 28722 PWs)   bands (ev):

   -60.3259 -34.5087 -34.5057 -34.3360 -12.9665 -12.1378  -4.7593  -3.4799
    -3.3086  -2.1083  -1.3492  -0.9755  -0.4087   2.5727   2.8475   3.3919
     4.3263   6.9726   7.3461   8.2567   9.1611   9.3794  10.0787  10.4831
    11.8125  12.3978  12.7368  13.4213  13.9715  13.9915  14.8716  14.9455
    15.6762  17.3460  17.7044  17.7177  17.9840  18.9938  20.1559  20.6606
    21.3875  21.6401

          k = 0.2390-0.1379 0.0000 ( 28720 PWs)   bands (ev):

   -60.3283 -34.5134 -34.4830 -34.3307 -13.0680 -12.1792  -4.7705  -3.4178
    -3.1726  -2.0204  -1.4435  -0.9072  -0.3183   2.5700   2.8947   3.3015
     4.2472   6.8355   7.2138   8.1601   9.1602   9.5141  10.0613  10.4119
    11.7058  12.3590  12.7379  13.3013  13.8601  13.8677  14.9341  15.0059
    15.5291  17.6196  17.7006  17.9826  18.1369  19.4341  20.4099  20.5980
    21.3397  21.5545

          k = 0.2219-0.1281 0.0000 ( 28713 PWs)   bands (ev):

   -60.3306 -34.5181 -34.4604 -34.3255 -13.1661 -12.2193  -4.8031  -3.3369
    -3.0356  -1.9301  -1.5367  -0.8428  -0.2257   2.5835   2.9473   3.2207
     4.1633   6.7041   7.0853   8.0613   9.0897   9.6233  10.0588  10.3775
    11.6277  12.2578  12.7646  13.1182  13.7423  13.8348  15.0677  15.0815
    15.4021  17.5175  17.6498  18.3903  18.5876  19.8868  20.2507  20.8837
    21.1286  21.6127

          k = 0.2048-0.1182 0.0000 ( 28714 PWs)   bands (ev):

   -60.3329 -34.5226 -34.4382 -34.3204 -13.2599 -12.2578  -4.8523  -3.2405
    -2.8982  -1.8382  -1.6275  -0.7850  -0.1354   2.6146   3.0040   3.1522
     4.0753   6.5793   6.9625   7.9616   8.9512   9.6793  10.0805  10.4003
    11.5710  12.1097  12.8155  12.9045  13.6383  13.8599  15.1641  15.2406
    15.3032  17.4125  17.5228  18.8834  19.0494  20.0228  20.3275  20.9148
    21.0610  21.6749

          k = 0.1878-0.1084 0.0000 ( 28740 PWs)   bands (ev):

   -60.3352 -34.5269 -34.4167 -34.3155 -13.3487 -12.2943  -4.9126  -3.1327
    -2.7607  -1.7456  -1.7149  -0.7370  -0.0514   2.6637   3.0639   3.0988
     3.9843   6.4617   6.8466   7.8615   8.7615   9.6752  10.1272  10.4728
    11.5238  11.9495  12.6806  12.8870  13.5481  13.9148  15.2425  15.2480
    15.4313  17.3062  17.3940  19.3864  19.4871  19.7869  20.5760  20.8679
    20.9911  21.7586

          k = 0.1707-0.0985 0.0000 ( 28733 PWs)   bands (ev):

   -60.3373 -34.5311 -34.3961 -34.3108 -13.4319 -12.3286  -4.9792  -3.0180
    -2.6236  -1.7979  -1.6534  -0.7018   0.0233   2.7304   3.0625   3.1257
     3.8916   6.3519   6.7386   7.7607   8.5428   9.6317  10.1936  10.5467
    11.4779  11.8233  12.4581  12.9722  13.4713  13.9714  15.2307  15.3276
    15.6284  17.2000  17.2736  19.3992  19.8699  20.0317  20.4251  20.8370
    21.1539  21.9347

          k = 0.1536-0.0887 0.0000 ( 28734 PWs)   bands (ev):

   -60.3393 -34.5350 -34.3766 -34.3063 -13.5089 -12.3604  -5.0479  -2.9002
    -2.4871  -1.8757  -1.5629  -0.6818   0.0871   2.8131   3.0444   3.1881
     3.7988   6.2502   6.6394   7.6578   8.3156   9.5708  10.2738  10.5605
    11.4304  11.7835  12.2440  13.0618  13.4074  14.0090  15.2760  15.3985
    15.8244  17.0958  17.1668  19.0659  20.0752  20.3780  20.4912  20.8094
    21.3555  22.2686

          k = 0.1366-0.0788 0.0000 ( 28730 PWs)   bands (ev):

   -60.3412 -34.5386 -34.3585 -34.3022 -13.5791 -12.3894  -5.1156  -2.7831
    -2.3517  -1.9473  -1.4752  -0.6790   0.1397   2.9088   3.0445   3.2495
     3.7075   6.1568   6.5493   7.5491   8.0978   9.5050  10.3621  10.4838
    11.3819  11.8560  12.0429  13.1471  13.3553  14.0200  15.3773  15.4580
    16.0143  16.9953  17.0771  18.7058  19.9005  20.3743  20.8658  21.1706
    21.5387  22.1118

          k = 0.1195-0.0690 0.0000 ( 28740 PWs)   bands (ev):

   -60.3429 -34.5419 -34.3421 -34.2985 -13.6422 -12.4155  -5.1798  -2.6699
    -2.2177  -2.0120  -1.3920  -0.6940   0.1814   3.0136   3.0611   3.3086
     3.6197   6.0720   6.4689   7.4292   7.9060   9.4407  10.3400  10.4539
    11.3349  11.8582  12.0161  13.2208  13.3140  14.0085  15.5045  15.5239
    16.1938  16.9005  17.0066  18.3383  19.6990  20.2703  21.0993  21.6160
    21.8676  21.8982

          k = 0.1024-0.0591 0.0000 ( 28758 PWs)   bands (ev):

   -60.3444 -34.5449 -34.3273 -34.2951 -13.6976 -12.4384  -5.2385  -2.5639
    -2.0857  -2.0694  -1.3149  -0.7264   0.2134   3.0912   3.1226   3.3638
     3.5374   5.9958   6.3985   7.2941   7.7523   9.3811  10.1680  10.5441
    11.2923  11.6926  12.2246  13.2786  13.2821  13.9831  15.5383  15.7006
    16.3594  16.8133  16.9552  17.9760  19.5094  20.1676  21.1912  21.4976
    22.2438  22.3243

          k = 0.0853-0.0493 0.0000 ( 28774 PWs)   bands (ev):

   -60.3457 -34.5474 -34.3146 -34.2922 -13.7451 -12.4580  -5.2902  -2.4680
    -2.1187  -1.9565  -1.2455  -0.7748   0.2371   3.1304   3.2303   3.4137
     3.4628   5.9285   6.3384   7.1497   7.6383   9.3281   9.9947  10.6276
    11.2571  11.5484  12.4530  13.2584  13.3188  13.9520  15.5611  15.8924
    16.5074  16.7355  16.9208  17.6297  19.3410  20.0750  21.2070  21.2325
    22.7756  22.7887

          k = 0.0683-0.0394 0.0000 ( 28790 PWs)   bands (ev):

   -60.3468 -34.5495 -34.3039 -34.2898 -13.7844 -12.4743  -5.3339  -2.3851
    -2.1597  -1.8316  -1.1857  -0.8364   0.2542   3.1735   3.3308   3.3980
     3.4568   5.8707   6.2889   7.0101   7.5565   9.2828   9.8368  10.6990
    11.2320  11.4276  12.6815  13.2414  13.3427  13.9207  15.5754  16.0847
    16.6344  16.6690  16.8999  17.3104  19.1990  19.9917  20.9329  21.2566
    23.1484  23.3213

          k = 0.0512-0.0296 0.0000 ( 28802 PWs)   bands (ev):

   -60.3476 -34.5512 -34.2955 -34.2879 -13.8152 -12.4870  -5.3686  -2.3175
    -2.1919  -1.7136  -1.1371  -0.9072   0.2659   3.2148   3.3452   3.4179
     3.4919   5.8232   6.2502   6.8891   7.4985   9.2459   9.7050  10.7540
    11.2184  11.3319  12.8926  13.2298  13.3537  13.8930  15.5838  16.2625
    16.6154  16.7374  16.8885  17.0316  19.0865  19.9159  20.7006  21.2728
    23.3639  23.7140

          k = 0.0341-0.0197 0.0000 ( 28808 PWs)   bands (ev):

   -60.3483 -34.5524 -34.2895 -34.2865 -13.8374 -12.4962  -5.3939  -2.2676
    -2.2151  -1.6079  -1.1011  -0.9803   0.2734   3.2489   3.3059   3.4855
     3.5179   5.7873   6.2224   6.7966   7.4594   9.2181   9.6066  10.7906
    11.2146  11.2626  13.0673  13.2225  13.3564  13.8710  15.5883  16.4097
    16.5760  16.8096  16.8132  16.8829  19.0055  19.8486  20.5276  21.2837
    23.5000  23.6552

          k = 0.0171-0.0099 0.0000 ( 28798 PWs)   bands (ev):

   -60.3486 -34.5531 -34.2862 -34.2853 -13.8507 -12.5017  -5.4092  -2.2375
    -2.2285  -1.5267  -1.0792  -1.0423   0.2776   3.2714   3.2818   3.5276
     3.5349   5.7648   6.2056   6.7389   7.4366   9.2005   9.5462  10.8105
    11.2142  11.2224  13.1845  13.2191  13.3557  13.8566  15.5905  16.5101
    16.5519  16.6624  16.8596  16.8807  18.9567  19.7983  20.4238  21.2902
    23.5845  23.6165

          k = 0.0000 0.0000 0.0000 ( 28805 PWs)   bands (ev):

   -60.3488 -34.5534 -34.2856 -34.2843 -13.8551 -12.5035  -5.4143  -2.2345
    -2.2258  -1.4938  -1.0735  -1.0671   0.2790   3.2736   3.2792   3.5376
     3.5451   5.7571   6.2000   6.7193   7.4291   9.1945   9.5258  10.8166
    11.2051  11.2185  13.2146  13.2297  13.3551  13.8515  15.5912  16.5436
    16.5512  16.6055  16.8746  16.8809  18.9404  19.7791  20.3896  21.2923
    23.6008  23.6165

     Writing output data file /scratch/as3359/MoS2_bandsdos/Ta.save/
 
     init_run     :      5.78s CPU      4.10s WALL (       1 calls)
     electrons    :    687.16s CPU    348.90s WALL (       1 calls)

     Called by init_run:
     wfcinit      :      0.00s CPU      0.00s WALL (       1 calls)
     potinit      :      0.59s CPU      0.53s WALL (       1 calls)
     hinit0       :      4.37s CPU      3.11s WALL (       1 calls)

     Called by electrons:
     c_bands      :    687.16s CPU    348.89s WALL (       1 calls)
     v_of_rho     :      0.18s CPU      0.10s WALL (       1 calls)
     newd         :      0.43s CPU      0.25s WALL (       1 calls)
     PAW_pot      :      0.19s CPU      0.10s WALL (       1 calls)

     Called by c_bands:
     init_us_2    :      0.33s CPU      0.16s WALL (      91 calls)
     cegterg      :    666.80s CPU    338.19s WALL (     325 calls)

     Called by *egterg:
     cdiaghg      :     20.22s CPU     10.32s WALL (    5725 calls)
     h_psi        :    484.19s CPU    246.40s WALL (    6050 calls)
     s_psi        :     10.70s CPU      5.37s WALL (    6050 calls)
     g_psi        :      6.26s CPU      3.14s WALL (    5634 calls)

     Called by h_psi:
     h_psi:calbec :     12.76s CPU      6.41s WALL (    6050 calls)
     vloc_psi     :    456.33s CPU    232.26s WALL (    6050 calls)
     add_vuspsi   :     10.69s CPU      5.36s WALL (    6050 calls)

     General routines
     calbec       :     12.72s CPU      6.39s WALL (    6050 calls)
     fft          :      0.87s CPU      0.64s WALL (      13 calls)
     ffts         :      0.01s CPU      0.00s WALL (       1 calls)
     fftw         :    387.92s CPU    197.67s WALL (  254542 calls)
     interpolate  :      0.02s CPU      0.01s WALL (       1 calls)
     davcio       :      0.44s CPU      0.46s WALL (     182 calls)
 
     Parallel routines
 
     PWSCF        :  11m43.56s CPU   6m 0.95s WALL

 
   This run was terminated on:  14:15:57  16Apr2022            

=------------------------------------------------------------------------------=
   JOB DONE.
=------------------------------------------------------------------------------=
