
     Program PWSCF v.6.8 starts on 14Apr2022 at 21:44:55 

     This program is part of the open-source Quantum ESPRESSO suite
     for quantum simulation of materials; please cite
         "P. Giannozzi et al., J. Phys.:Condens. Matter 21 395502 (2009);
         "P. Giannozzi et al., J. Phys.:Condens. Matter 29 465901 (2017);
         "P. Giannozzi et al., J. Chem. Phys. 152 154105 (2020);
          URL http://www.quantum-espresso.org", 
     in publications or presentations arising from this work. More details at
     http://www.quantum-espresso.org/quote

     Parallel version (MPI & OpenMP), running on       4 processor cores
     Number of MPI processes:                 2
     Threads/MPI process:                     2

     MPI processes distributed on     1 nodes
     R & G space division:  proc/nbgrp/npool/nimage =       2
     125017 MiB available memory on the printing compute node when the environment starts
 
     Reading input from Ta2CO.scf.5.620.in
Warning: card  &CELL ignored
Warning: card     CELL_DYNAMICS='BFGS' ignored
Warning: card  / ignored

     Current dimensions of program PWSCF are:
     Max number of different atomic species (ntypx) = 10
     Max number of k-points (npk) =  40000
     Max angular momentum in pseudopotentials (lmaxx) =  4
     Message from routine iosys:
     restart disabled: needed files not found
     file Ta.pbesol-spfn-rrkjus_psl.1.0.0.UPF: wavefunction(s)  5S 5P renormalized

     Subspace diagonalization in iterative solution of the eigenvalue problem:
     a serial algorithm will be used

 
     Parallelization info
     --------------------
     sticks:   dense  smooth     PW     G-vecs:    dense   smooth      PW
     Min         708     708    210               207328   207328   32884
     Max         709     709    211               207359   207359   32917
     Sum        1417    1417    421               414687   414687   65801
 
     Using Slab Decomposition
 


     bravais-lattice index     =            0
     lattice parameter (alat)  =       5.6200  a.u.
     unit-cell volume          =    1670.3396 (a.u.)^3
     number of atoms/cell      =            5
     number of atomic types    =            3
     number of electrons       =        70.00
     number of Kohn-Sham states=           35
     kinetic-energy cutoff     =     150.0000  Ry
     charge density cutoff     =     600.0000  Ry
     scf convergence threshold =      1.0E-12
     mixing beta               =       0.7000
     number of iterations used =            8  plain     mixing
     Exchange-correlation= PBESOL
                           (   1   4  10   8   0   0   0)

     celldm(1)=   5.620000  celldm(2)=   0.000000  celldm(3)=   0.000000
     celldm(4)=   0.000000  celldm(5)=   0.000000  celldm(6)=   0.000000

     crystal axes: (cart. coord. in units of alat)
               a(1) = (   1.043500   0.000814   0.000000 )  
               a(2) = (  -0.521746   0.901379   0.000000 )  
               a(3) = (   0.000000   0.000000  10.000000 )  

     reciprocal axes: (cart. coord. in units 2 pi/alat)
               b(1) = (  0.957881  0.554451  0.000000 )  
               b(2) = ( -0.000865  1.108910  0.000000 )  
               b(3) = (  0.000000  0.000000  0.100000 )  


     PseudoPot. # 1 for Ta read from file:
     /shared/home/as3359/pseudo/Ta.pbesol-spfn-rrkjus_psl.1.0.0.UPF
     MD5 check sum: f099565ffaca9b150a52e9412a28e20b
     Pseudo is Ultrasoft + core correction, Zval = 27.0
     Generated using &quot;atomic&quot; code by A. Dal Corso  v.6.3
     Using radial grid of 1273 points,  8 beta functions with: 
                l(1) =   0
                l(2) =   0
                l(3) =   1
                l(4) =   1
                l(5) =   2
                l(6) =   2
                l(7) =   3
                l(8) =   3
     Q(r) pseudized with 0 coefficients 


     PseudoPot. # 2 for C  read from file:
     /shared/home/as3359/pseudo/C.pbesol-n-rrkjus_psl.1.0.0.UPF
     MD5 check sum: 05995be603a8a7c99da3dc4413f31573
     Pseudo is Ultrasoft + core correction, Zval =  4.0
     Generated using &quot;atomic&quot; code by A. Dal Corso  v.6.3MaX
     Using radial grid of 1073 points,  4 beta functions with: 
                l(1) =   0
                l(2) =   0
                l(3) =   1
                l(4) =   1
     Q(r) pseudized with 0 coefficients 


     PseudoPot. # 3 for O  read from file:
     /shared/home/as3359/pseudo/O.pbesol-n-rrkjus_psl.1.0.0.UPF
     MD5 check sum: dd9bad2534826f832ffc9296591fc5de
     Pseudo is Ultrasoft + core correction, Zval =  6.0
     Generated using &quot;atomic&quot; code by A. Dal Corso  v.6.3MaX
     Using radial grid of 1095 points,  4 beta functions with: 
                l(1) =   0
                l(2) =   0
                l(3) =   1
                l(4) =   1
     Q(r) pseudized with 0 coefficients 


     atomic species   valence    mass     pseudopotential
        Ta            27.00   180.94788     Ta( 1.00)
        C              4.00    12.01070     C ( 1.00)
        O              6.00    15.99940     O ( 1.00)

     No symmetry found



   Cartesian axes

     site n.     atom                  positions (alat units)
         1           C   tau(   1) = (  -0.1377536   0.0179990   0.0193518  )
         2           Ta  tau(   2) = (   0.3841239   0.3191886  -0.4303721  )
         3           Ta  tau(   3) = (  -0.1376121   0.6197216   0.4272316  )
         4           O   tau(   4) = (   0.3845132   0.3204022   0.8049677  )
         5           O   tau(   5) = (  -0.1374316   0.0186104  -0.8211265  )

     number of k points=   113

     Number of k-points >= 100: set verbosity='high' to print them.

     Dense  grid:   414687 G-vectors     FFT dimensions: (  45,  45, 450)

     Estimated max dynamical RAM per process >       3.51 GB

     Estimated total dynamical RAM >       7.03 GB
     Cannot read rho : file not found

     Initial potential from superposition of free atoms

     starting charge   69.99841, renormalised to   70.00000

     negative rho (up, down):  1.267E-04 0.000E+00
     Message from routine qexsd_readschema :
     xml data file /scratch/as3359/Mos2_ct_lat/Ta2CO.save/data-file-schema.xml not fo
     Cannot read wfcs: file not found
     Starting wfcs are   46 randomized atomic wfcs

     total cpu time spent up to now is       46.5 secs

     Self-consistent Calculation

     iteration #  1     ecut=   150.00 Ry     beta= 0.70
     Davidson diagonalization with overlap
     ethr =  1.00E-05,  avg # of iterations =  9.2

     negative rho (up, down):  1.512E-04 0.000E+00

     total cpu time spent up to now is      262.5 secs

     total energy              =   -1437.53385925 Ry
     estimated scf accuracy    <       1.57365567 Ry

     iteration #  2     ecut=   150.00 Ry     beta= 0.70
     Davidson diagonalization with overlap
     ethr =  2.25E-03,  avg # of iterations = 11.5

     negative rho (up, down):  1.557E-04 0.000E+00

     total cpu time spent up to now is      408.3 secs

     total energy              =   -1435.65495672 Ry
     estimated scf accuracy    <      16.88271140 Ry

     iteration #  3     ecut=   150.00 Ry     beta= 0.70
     Davidson diagonalization with overlap
     c_bands:  1 eigenvalues not converged
     c_bands:  1 eigenvalues not converged
     c_bands:  1 eigenvalues not converged
     c_bands:  1 eigenvalues not converged
     c_bands:  2 eigenvalues not converged
     ethr =  2.25E-03,  avg # of iterations = 15.5

     negative rho (up, down):  1.150E-04 0.000E+00

     total cpu time spent up to now is      586.3 secs

     total energy              =   -1434.09560640 Ry
     estimated scf accuracy    <      90.37129911 Ry

     iteration #  4     ecut=   150.00 Ry     beta= 0.70
     Davidson diagonalization with overlap
     ethr =  2.25E-03,  avg # of iterations =  9.7

     negative rho (up, down):  1.120E-04 0.000E+00

     total cpu time spent up to now is      727.0 secs

     total energy              =   -1438.25820959 Ry
     estimated scf accuracy    <       1.06973978 Ry

     iteration #  5     ecut=   150.00 Ry     beta= 0.70
     Davidson diagonalization with overlap
     ethr =  1.53E-03,  avg # of iterations =  2.2

     negative rho (up, down):  1.220E-04 0.000E+00

     total cpu time spent up to now is      805.7 secs

     total energy              =   -1438.24729277 Ry
     estimated scf accuracy    <       0.38175538 Ry

     iteration #  6     ecut=   150.00 Ry     beta= 0.70
     Davidson diagonalization with overlap
     c_bands:  1 eigenvalues not converged
     ethr =  5.45E-04,  avg # of iterations =  6.9

     negative rho (up, down):  1.211E-04 0.000E+00

     total cpu time spent up to now is      912.8 secs

     total energy              =   -1438.35145903 Ry
     estimated scf accuracy    <       0.03992469 Ry

     iteration #  7     ecut=   150.00 Ry     beta= 0.70
     Davidson diagonalization with overlap
     ethr =  5.70E-05,  avg # of iterations =  6.9

     negative rho (up, down):  1.224E-04 0.000E+00

     total cpu time spent up to now is     1011.0 secs

     total energy              =   -1438.35150281 Ry
     estimated scf accuracy    <       0.03593511 Ry

     iteration #  8     ecut=   150.00 Ry     beta= 0.70
     Davidson diagonalization with overlap
     ethr =  5.13E-05,  avg # of iterations =  4.0

     negative rho (up, down):  1.355E-04 0.000E+00

     total cpu time spent up to now is     1097.5 secs

     total energy              =   -1438.35234125 Ry
     estimated scf accuracy    <       0.00838448 Ry

     iteration #  9     ecut=   150.00 Ry     beta= 0.70
     Davidson diagonalization with overlap
     c_bands:  1 eigenvalues not converged
     ethr =  1.20E-05,  avg # of iterations =  9.6

     negative rho (up, down):  1.403E-04 0.000E+00

     total cpu time spent up to now is     1250.5 secs

     total energy              =   -1438.35424524 Ry
     estimated scf accuracy    <       0.10147813 Ry

     iteration # 10     ecut=   150.00 Ry     beta= 0.70
     Davidson diagonalization with overlap
     ethr =  1.20E-05,  avg # of iterations =  5.5

     negative rho (up, down):  1.418E-04 0.000E+00

     total cpu time spent up to now is     1363.2 secs

     total energy              =   -1438.35194954 Ry
     estimated scf accuracy    <       0.02381400 Ry

     iteration # 11     ecut=   150.00 Ry     beta= 0.70
     Davidson diagonalization with overlap
     ethr =  1.20E-05,  avg # of iterations =  6.2

     negative rho (up, down):  1.483E-04 0.000E+00

     total cpu time spent up to now is     1475.7 secs

     total energy              =   -1438.35588359 Ry
     estimated scf accuracy    <       0.00014314 Ry

     iteration # 12     ecut=   150.00 Ry     beta= 0.70
     Davidson diagonalization with overlap
     c_bands:  1 eigenvalues not converged
     c_bands:  1 eigenvalues not converged
     ethr =  2.04E-07,  avg # of iterations = 10.9

     negative rho (up, down):  1.571E-04 0.000E+00

     total cpu time spent up to now is     1627.5 secs

     total energy              =   -1438.35606763 Ry
     estimated scf accuracy    <       0.00005708 Ry

     iteration # 13     ecut=   150.00 Ry     beta= 0.70
     Davidson diagonalization with overlap
     c_bands:  1 eigenvalues not converged
     ethr =  8.15E-08,  avg # of iterations =  8.6

     negative rho (up, down):  1.654E-04 0.000E+00

     total cpu time spent up to now is     1750.4 secs

     total energy              =   -1438.35606924 Ry
     estimated scf accuracy    <       0.00015473 Ry

     iteration # 14     ecut=   150.00 Ry     beta= 0.70
     Davidson diagonalization with overlap
     c_bands:  1 eigenvalues not converged
     ethr =  8.15E-08,  avg # of iterations =  6.4

     negative rho (up, down):  1.681E-04 0.000E+00

     total cpu time spent up to now is     1857.8 secs

     total energy              =   -1438.35608895 Ry
     estimated scf accuracy    <       0.00000817 Ry

     iteration # 15     ecut=   150.00 Ry     beta= 0.70
     Davidson diagonalization with overlap
     c_bands:  1 eigenvalues not converged
     ethr =  1.17E-08,  avg # of iterations =  4.5

     negative rho (up, down):  1.690E-04 0.000E+00

     total cpu time spent up to now is     1946.2 secs

     total energy              =   -1438.35609438 Ry
     estimated scf accuracy    <       0.00000197 Ry

     iteration # 16     ecut=   150.00 Ry     beta= 0.70
     Davidson diagonalization with overlap
     c_bands:  1 eigenvalues not converged
     ethr =  2.81E-09,  avg # of iterations =  7.5

     negative rho (up, down):  1.687E-04 0.000E+00

     total cpu time spent up to now is     2048.0 secs

     total energy              =   -1438.35609738 Ry
     estimated scf accuracy    <       0.00000094 Ry

     iteration # 17     ecut=   150.00 Ry     beta= 0.70
     Davidson diagonalization with overlap
     c_bands:  1 eigenvalues not converged
     ethr =  1.34E-09,  avg # of iterations =  6.5

     negative rho (up, down):  1.683E-04 0.000E+00

     total cpu time spent up to now is     2137.8 secs

     total energy              =   -1438.35610373 Ry
     estimated scf accuracy    <       0.00000120 Ry

     iteration # 18     ecut=   150.00 Ry     beta= 0.70
     Davidson diagonalization with overlap
     c_bands:  1 eigenvalues not converged
     ethr =  1.34E-09,  avg # of iterations =  2.1

     negative rho (up, down):  1.696E-04 0.000E+00

     total cpu time spent up to now is     2210.9 secs

     total energy              =   -1438.35610411 Ry
     estimated scf accuracy    <       0.00000218 Ry

     iteration # 19     ecut=   150.00 Ry     beta= 0.70
     Davidson diagonalization with overlap
     c_bands:  1 eigenvalues not converged
     c_bands:  1 eigenvalues not converged
     ethr =  1.34E-09,  avg # of iterations = 11.3

     negative rho (up, down):  1.700E-04 0.000E+00

     total cpu time spent up to now is     2348.9 secs

     total energy              =   -1438.35610422 Ry
     estimated scf accuracy    <       0.00000892 Ry

     iteration # 20     ecut=   150.00 Ry     beta= 0.70
     Davidson diagonalization with overlap
     c_bands:  1 eigenvalues not converged
     ethr =  1.34E-09,  avg # of iterations =  7.3

     negative rho (up, down):  1.700E-04 0.000E+00

     total cpu time spent up to now is     2442.9 secs

     total energy              =   -1438.35610402 Ry
     estimated scf accuracy    <       0.00000304 Ry

     iteration # 21     ecut=   150.00 Ry     beta= 0.70
     Davidson diagonalization with overlap
     c_bands:  1 eigenvalues not converged
     ethr =  1.34E-09,  avg # of iterations =  6.7

     negative rho (up, down):  1.701E-04 0.000E+00

     total cpu time spent up to now is     2545.5 secs

     total energy              =   -1438.35610437 Ry
     estimated scf accuracy    <       0.00000050 Ry

     iteration # 22     ecut=   150.00 Ry     beta= 0.70
     Davidson diagonalization with overlap
     c_bands:  1 eigenvalues not converged
     ethr =  7.16E-10,  avg # of iterations =  2.0

     negative rho (up, down):  1.704E-04 0.000E+00

     total cpu time spent up to now is     2617.4 secs

     total energy              =   -1438.35610439 Ry
     estimated scf accuracy    <       0.00000039 Ry

     iteration # 23     ecut=   150.00 Ry     beta= 0.70
     Davidson diagonalization with overlap
     c_bands:  1 eigenvalues not converged
     ethr =  5.55E-10,  avg # of iterations =  3.8

     negative rho (up, down):  1.705E-04 0.000E+00

     total cpu time spent up to now is     2698.2 secs

     total energy              =   -1438.35610441 Ry
     estimated scf accuracy    <       0.00000028 Ry

     iteration # 24     ecut=   150.00 Ry     beta= 0.70
     Davidson diagonalization with overlap
     ethr =  4.05E-10,  avg # of iterations =  3.4

     negative rho (up, down):  1.705E-04 0.000E+00

     total cpu time spent up to now is     2776.6 secs

     total energy              =   -1438.35610438 Ry
     estimated scf accuracy    <       0.00000014 Ry

     iteration # 25     ecut=   150.00 Ry     beta= 0.70
     Davidson diagonalization with overlap
     ethr =  1.98E-10,  avg # of iterations =  8.5

     negative rho (up, down):  1.705E-04 0.000E+00

     total cpu time spent up to now is     2881.7 secs

     total energy              =   -1438.35610443 Ry
     estimated scf accuracy    <       0.00000010 Ry

     iteration # 26     ecut=   150.00 Ry     beta= 0.70
     Davidson diagonalization with overlap
     ethr =  1.37E-10,  avg # of iterations =  1.4

     negative rho (up, down):  1.705E-04 0.000E+00

     total cpu time spent up to now is     2950.1 secs

     total energy              =   -1438.35610443 Ry
     estimated scf accuracy    <       0.00000008 Ry

     iteration # 27     ecut=   150.00 Ry     beta= 0.70
     Davidson diagonalization with overlap
     ethr =  1.11E-10,  avg # of iterations =  1.8

     negative rho (up, down):  1.704E-04 0.000E+00

     total cpu time spent up to now is     3020.9 secs

     total energy              =   -1438.35610442 Ry
     estimated scf accuracy    <       0.00000006 Ry

     iteration # 28     ecut=   150.00 Ry     beta= 0.70
     Davidson diagonalization with overlap
     ethr =  8.39E-11,  avg # of iterations = 10.2

     negative rho (up, down):  1.704E-04 0.000E+00

     total cpu time spent up to now is     3117.3 secs

     total energy              =   -1438.35610443 Ry
     estimated scf accuracy    <       0.00000002 Ry

     iteration # 29     ecut=   150.00 Ry     beta= 0.70
     Davidson diagonalization with overlap
     ethr =  2.63E-11,  avg # of iterations =  2.1

     negative rho (up, down):  1.705E-04 0.000E+00

     total cpu time spent up to now is     3191.1 secs

     total energy              =   -1438.35610443 Ry
     estimated scf accuracy    <       0.00000001 Ry

     iteration # 30     ecut=   150.00 Ry     beta= 0.70
     Davidson diagonalization with overlap
     ethr =  2.14E-11,  avg # of iterations =  8.2

     negative rho (up, down):  1.705E-04 0.000E+00

     total cpu time spent up to now is     3278.8 secs

     total energy              =   -1438.35610443 Ry
     estimated scf accuracy    <          3.7E-10 Ry

     iteration # 31     ecut=   150.00 Ry     beta= 0.70
     Davidson diagonalization with overlap
     c_bands:  1 eigenvalues not converged
     c_bands:  1 eigenvalues not converged
     c_bands:  1 eigenvalues not converged
     c_bands:  1 eigenvalues not converged
     c_bands:  1 eigenvalues not converged
     c_bands:  1 eigenvalues not converged
     c_bands:  1 eigenvalues not converged
     ethr =  5.27E-13,  avg # of iterations = 13.6

     negative rho (up, down):  1.705E-04 0.000E+00

     total cpu time spent up to now is     3425.9 secs

     total energy              =   -1438.35610443 Ry
     estimated scf accuracy    <          7.2E-09 Ry

     iteration # 32     ecut=   150.00 Ry     beta= 0.70
     Davidson diagonalization with overlap
     c_bands:  1 eigenvalues not converged
     ethr =  5.27E-13,  avg # of iterations =  9.6

     negative rho (up, down):  1.705E-04 0.000E+00

     total cpu time spent up to now is     3523.6 secs

     total energy              =   -1438.35610443 Ry
     estimated scf accuracy    <          2.0E-09 Ry

     iteration # 33     ecut=   150.00 Ry     beta= 0.70
     Davidson diagonalization with overlap
     ethr =  5.27E-13,  avg # of iterations =  8.9

     negative rho (up, down):  1.705E-04 0.000E+00

     total cpu time spent up to now is     3629.4 secs

     total energy              =   -1438.35610443 Ry
     estimated scf accuracy    <          1.3E-10 Ry

     iteration # 34     ecut=   150.00 Ry     beta= 0.70
     Davidson diagonalization with overlap
     ethr =  1.85E-13,  avg # of iterations =  2.1

     negative rho (up, down):  1.705E-04 0.000E+00

     total cpu time spent up to now is     3702.2 secs

     total energy              =   -1438.35610443 Ry
     estimated scf accuracy    <          7.7E-11 Ry

     iteration # 35     ecut=   150.00 Ry     beta= 0.70
     Davidson diagonalization with overlap
     ethr =  1.10E-13,  avg # of iterations =  2.9

     negative rho (up, down):  1.705E-04 0.000E+00

     total cpu time spent up to now is     3778.7 secs

     total energy              =   -1438.35610443 Ry
     estimated scf accuracy    <          3.9E-11 Ry

     iteration # 36     ecut=   150.00 Ry     beta= 0.70
     Davidson diagonalization with overlap
     ethr =  1.00E-13,  avg # of iterations = 10.5

     negative rho (up, down):  1.705E-04 0.000E+00

     total cpu time spent up to now is     3878.9 secs

     total energy              =   -1438.35610443 Ry
     estimated scf accuracy    <          9.4E-11 Ry

     iteration # 37     ecut=   150.00 Ry     beta= 0.70
     Davidson diagonalization with overlap
     ethr =  1.00E-13,  avg # of iterations =  1.4

     negative rho (up, down):  1.705E-04 0.000E+00

     total cpu time spent up to now is     3947.8 secs

     total energy              =   -1438.35610443 Ry
     estimated scf accuracy    <          9.9E-11 Ry

     iteration # 38     ecut=   150.00 Ry     beta= 0.70
     Davidson diagonalization with overlap
     ethr =  1.00E-13,  avg # of iterations =  1.1

     negative rho (up, down):  1.705E-04 0.000E+00

     total cpu time spent up to now is     4015.3 secs

     total energy              =   -1438.35610443 Ry
     estimated scf accuracy    <          8.1E-11 Ry

     iteration # 39     ecut=   150.00 Ry     beta= 0.70
     Davidson diagonalization with overlap
     ethr =  1.00E-13,  avg # of iterations =  2.2

     negative rho (up, down):  1.705E-04 0.000E+00

     total cpu time spent up to now is     4088.1 secs

     total energy              =   -1438.35610443 Ry
     estimated scf accuracy    <          3.9E-11 Ry

     iteration # 40     ecut=   150.00 Ry     beta= 0.70
     Davidson diagonalization with overlap
     ethr =  1.00E-13,  avg # of iterations =  1.4

     negative rho (up, down):  1.705E-04 0.000E+00

     total cpu time spent up to now is     4156.7 secs

     total energy              =   -1438.35610443 Ry
     estimated scf accuracy    <          2.8E-11 Ry

     iteration # 41     ecut=   150.00 Ry     beta= 0.70
     Davidson diagonalization with overlap
     ethr =  1.00E-13,  avg # of iterations =  2.2

     negative rho (up, down):  1.705E-04 0.000E+00

     total cpu time spent up to now is     4229.6 secs

     total energy              =   -1438.35610443 Ry
     estimated scf accuracy    <          9.4E-12 Ry

     iteration # 42     ecut=   150.00 Ry     beta= 0.70
     Davidson diagonalization with overlap
     ethr =  1.00E-13,  avg # of iterations =  1.8

     negative rho (up, down):  1.705E-04 0.000E+00

     total cpu time spent up to now is     4300.6 secs

     total energy              =   -1438.35610443 Ry
     estimated scf accuracy    <          1.3E-11 Ry

     iteration # 43     ecut=   150.00 Ry     beta= 0.70
     Davidson diagonalization with overlap
     ethr =  1.00E-13,  avg # of iterations =  1.0

     negative rho (up, down):  1.705E-04 0.000E+00

     total cpu time spent up to now is     4368.0 secs

     total energy              =   -1438.35610443 Ry
     estimated scf accuracy    <          1.5E-11 Ry

     iteration # 44     ecut=   150.00 Ry     beta= 0.70
     Davidson diagonalization with overlap
     ethr =  1.00E-13,  avg # of iterations =  1.1

     negative rho (up, down):  1.705E-04 0.000E+00

     total cpu time spent up to now is     4435.1 secs

     total energy              =   -1438.35610443 Ry
     estimated scf accuracy    <          1.3E-11 Ry

     iteration # 45     ecut=   150.00 Ry     beta= 0.70
     Davidson diagonalization with overlap
     ethr =  1.00E-13,  avg # of iterations =  2.0

     negative rho (up, down):  1.705E-04 0.000E+00

     total cpu time spent up to now is     4506.9 secs

     total energy              =   -1438.35610443 Ry
     estimated scf accuracy    <          2.0E-12 Ry

     iteration # 46     ecut=   150.00 Ry     beta= 0.70
     Davidson diagonalization with overlap
     ethr =  1.00E-13,  avg # of iterations =  1.6

     negative rho (up, down):  1.705E-04 0.000E+00

     total cpu time spent up to now is     4576.5 secs

     End of self-consistent calculation

     Number of k-points >= 100: set verbosity='high' to print the bands.

     highest occupied level (ev):    -0.5230

!    total energy              =   -1438.35610443 Ry
     estimated scf accuracy    <          4.0E-13 Ry

     The total energy is the sum of the following terms:
     one-electron contribution =  -13962.90422947 Ry
     hartree contribution      =    7011.58646657 Ry
     xc contribution           =    -153.52129375 Ry
     ewald contribution        =    5666.48295222 Ry

     convergence has been achieved in  46 iterations

     negative rho (up, down):  1.705E-04 0.000E+00

     Forces acting on atoms (cartesian axes, Ry/au):

     atom    1 type  2   force =     0.00005589    0.00014060    0.00319878
     atom    2 type  1   force =     0.00003068    0.00011564    0.00455126
     atom    3 type  1   force =    -0.00002486   -0.00013308   -0.00660365
     atom    4 type  3   force =    -0.00002403   -0.00007465   -0.02296990
     atom    5 type  3   force =    -0.00003767   -0.00004850    0.02182352

     Total force =     0.032841     Total SCF correction =     0.000009


     Computing stress (Cartesian axis) and pressure


     negative rho (up, down):  1.705E-04 0.000E+00
          total   stress  (Ry/bohr**3)                   (kbar)     P=      -23.34
  -0.00017157  -0.00000110  -0.00000004          -25.24       -0.16       -0.01
  -0.00000110  -0.00016535  -0.00000042           -0.16      -24.32       -0.06
  -0.00000004  -0.00000042  -0.00013911           -0.01       -0.06      -20.46


     Writing output data file /scratch/as3359/Mos2_ct_lat/Ta2CO.save/
 
     init_run     :     86.09s CPU     46.30s WALL (       1 calls)
     electrons    :   8934.61s CPU   4530.01s WALL (       1 calls)
     forces       :     23.50s CPU     12.01s WALL (       1 calls)
     stress       :    112.56s CPU     57.39s WALL (       1 calls)

     Called by init_run:
     wfcinit      :     73.61s CPU     37.99s WALL (       1 calls)
     potinit      :      3.25s CPU      1.64s WALL (       1 calls)
     hinit0       :      7.07s CPU      5.18s WALL (       1 calls)

     Called by electrons:
     c_bands      :   7634.29s CPU   3852.28s WALL (      46 calls)
     sum_band     :   1197.35s CPU    615.16s WALL (      46 calls)
     v_of_rho     :     14.22s CPU      7.70s WALL (      47 calls)
     newd         :     83.30s CPU     51.91s WALL (      47 calls)
     mix_rho      :      6.48s CPU      3.48s WALL (      46 calls)

     Called by c_bands:
     init_us_2    :    169.51s CPU     84.82s WALL (   10735 calls)
     cegterg      :   7160.14s CPU   3613.37s WALL (    5198 calls)

     Called by *egterg:
     cdiaghg      :     75.69s CPU     38.70s WALL (   35000 calls)
     h_psi        :   5516.01s CPU   2789.05s WALL (   35113 calls)
     s_psi        :    362.87s CPU    181.62s WALL (   35113 calls)
     g_psi        :     28.73s CPU     14.43s WALL (   29802 calls)

     Called by h_psi:
     h_psi:calbec :    277.75s CPU    139.40s WALL (   35113 calls)
     vloc_psi     :   4807.73s CPU   2433.64s WALL (   35113 calls)
     add_vuspsi   :    385.08s CPU    192.82s WALL (   35113 calls)

     General routines
     calbec       :    352.57s CPU    177.02s WALL (   40876 calls)
     fft          :     10.53s CPU      5.37s WALL (     542 calls)
     ffts         :      0.55s CPU      0.28s WALL (      46 calls)
     fftw         :   4889.64s CPU   2477.23s WALL ( 1202070 calls)
 
     Parallel routines
 
     PWSCF        :      2h32m CPU      1h17m WALL

 
   This run was terminated on:  23: 2:29  14Apr2022            

=------------------------------------------------------------------------------=
   JOB DONE.
=------------------------------------------------------------------------------=
