
     Program PWSCF v.6.8 starts on 14Apr2022 at 20:37:13 

     This program is part of the open-source Quantum ESPRESSO suite
     for quantum simulation of materials; please cite
         "P. Giannozzi et al., J. Phys.:Condens. Matter 21 395502 (2009);
         "P. Giannozzi et al., J. Phys.:Condens. Matter 29 465901 (2017);
         "P. Giannozzi et al., J. Chem. Phys. 152 154105 (2020);
          URL http://www.quantum-espresso.org", 
     in publications or presentations arising from this work. More details at
     http://www.quantum-espresso.org/quote

     Parallel version (MPI & OpenMP), running on       4 processor cores
     Number of MPI processes:                 2
     Threads/MPI process:                     2

     MPI processes distributed on     1 nodes
     R & G space division:  proc/nbgrp/npool/nimage =       2
     125229 MiB available memory on the printing compute node when the environment starts
 
     Reading input from Ta2CO.scf.5.600.in
Warning: card  &CELL ignored
Warning: card     CELL_DYNAMICS='BFGS' ignored
Warning: card  / ignored

     Current dimensions of program PWSCF are:
     Max number of different atomic species (ntypx) = 10
     Max number of k-points (npk) =  40000
     Max angular momentum in pseudopotentials (lmaxx) =  4
     file Ta.pbesol-spfn-rrkjus_psl.1.0.0.UPF: wavefunction(s)  5S 5P renormalized

     Subspace diagonalization in iterative solution of the eigenvalue problem:
     a serial algorithm will be used

 
     Parallelization info
     --------------------
     sticks:   dense  smooth     PW     G-vecs:    dense   smooth      PW
     Min         706     706    210               205160   205160   32568
     Max         707     707    211               205165   205165   32593
     Sum        1413    1413    421               410325   410325   65161
 
     Using Slab Decomposition
 


     bravais-lattice index     =            0
     lattice parameter (alat)  =       5.6000  a.u.
     unit-cell volume          =    1652.5702 (a.u.)^3
     number of atoms/cell      =            5
     number of atomic types    =            3
     number of electrons       =        70.00
     number of Kohn-Sham states=           35
     kinetic-energy cutoff     =     150.0000  Ry
     charge density cutoff     =     600.0000  Ry
     scf convergence threshold =      1.0E-12
     mixing beta               =       0.7000
     number of iterations used =            8  plain     mixing
     Exchange-correlation= PBESOL
                           (   1   4  10   8   0   0   0)

     celldm(1)=   5.600000  celldm(2)=   0.000000  celldm(3)=   0.000000
     celldm(4)=   0.000000  celldm(5)=   0.000000  celldm(6)=   0.000000

     crystal axes: (cart. coord. in units of alat)
               a(1) = (   1.043500   0.000814   0.000000 )  
               a(2) = (  -0.521746   0.901379   0.000000 )  
               a(3) = (   0.000000   0.000000  10.000000 )  

     reciprocal axes: (cart. coord. in units 2 pi/alat)
               b(1) = (  0.957881  0.554451  0.000000 )  
               b(2) = ( -0.000865  1.108910  0.000000 )  
               b(3) = (  0.000000  0.000000  0.100000 )  


     PseudoPot. # 1 for Ta read from file:
     /shared/home/as3359/pseudo/Ta.pbesol-spfn-rrkjus_psl.1.0.0.UPF
     MD5 check sum: f099565ffaca9b150a52e9412a28e20b
     Pseudo is Ultrasoft + core correction, Zval = 27.0
     Generated using &quot;atomic&quot; code by A. Dal Corso  v.6.3
     Using radial grid of 1273 points,  8 beta functions with: 
                l(1) =   0
                l(2) =   0
                l(3) =   1
                l(4) =   1
                l(5) =   2
                l(6) =   2
                l(7) =   3
                l(8) =   3
     Q(r) pseudized with 0 coefficients 


     PseudoPot. # 2 for C  read from file:
     /shared/home/as3359/pseudo/C.pbesol-n-rrkjus_psl.1.0.0.UPF
     MD5 check sum: 05995be603a8a7c99da3dc4413f31573
     Pseudo is Ultrasoft + core correction, Zval =  4.0
     Generated using &quot;atomic&quot; code by A. Dal Corso  v.6.3MaX
     Using radial grid of 1073 points,  4 beta functions with: 
                l(1) =   0
                l(2) =   0
                l(3) =   1
                l(4) =   1
     Q(r) pseudized with 0 coefficients 


     PseudoPot. # 3 for O  read from file:
     /shared/home/as3359/pseudo/O.pbesol-n-rrkjus_psl.1.0.0.UPF
     MD5 check sum: dd9bad2534826f832ffc9296591fc5de
     Pseudo is Ultrasoft + core correction, Zval =  6.0
     Generated using &quot;atomic&quot; code by A. Dal Corso  v.6.3MaX
     Using radial grid of 1095 points,  4 beta functions with: 
                l(1) =   0
                l(2) =   0
                l(3) =   1
                l(4) =   1
     Q(r) pseudized with 0 coefficients 


     atomic species   valence    mass     pseudopotential
        Ta            27.00   180.94788     Ta( 1.00)
        C              4.00    12.01070     C ( 1.00)
        O              6.00    15.99940     O ( 1.00)

     No symmetry found



   Cartesian axes

     site n.     atom                  positions (alat units)
         1           C   tau(   1) = (  -0.1377536   0.0179990   0.0193518  )
         2           Ta  tau(   2) = (   0.3841239   0.3191886  -0.4303721  )
         3           Ta  tau(   3) = (  -0.1376121   0.6197216   0.4272316  )
         4           O   tau(   4) = (   0.3845132   0.3204022   0.8049677  )
         5           O   tau(   5) = (  -0.1374316   0.0186104  -0.8211265  )

     number of k points=   113

     Number of k-points >= 100: set verbosity='high' to print them.

     Dense  grid:   410325 G-vectors     FFT dimensions: (  45,  45, 450)

     Estimated max dynamical RAM per process >       3.48 GB

     Estimated total dynamical RAM >       6.95 GB

     Atomic positions and unit cell read from directory:
     /scratch/as3359/Mos2_ct_lat/Ta2CO.save/
     Message from routine qexsd_readschema :
     xml data file /scratch/as3359/Mos2_ct_lat/Ta2CO.save/data-file-schema.xml not fo
     Nothing found: using input atomic positions and unit cell

     Cannot read rho : file not found

     Initial potential from superposition of free atoms

     starting charge   69.99841, renormalised to   70.00000

     negative rho (up, down):  1.253E-04 0.000E+00
     Message from routine qexsd_readschema :
     xml data file /scratch/as3359/Mos2_ct_lat/Ta2CO.save/data-file-schema.xml not fo
     Cannot read wfcs: file not found
     Starting wfcs are   46 randomized atomic wfcs

     total cpu time spent up to now is       45.2 secs

     Self-consistent Calculation

     iteration #  1     ecut=   150.00 Ry     beta= 0.70
     Davidson diagonalization with overlap
     ethr =  1.00E-05,  avg # of iterations =  9.2

     negative rho (up, down):  1.510E-04 0.000E+00

     total cpu time spent up to now is      254.9 secs

     total energy              =   -1437.54384757 Ry
     estimated scf accuracy    <       1.56490821 Ry

     iteration #  2     ecut=   150.00 Ry     beta= 0.70
     Davidson diagonalization with overlap
     ethr =  2.24E-03,  avg # of iterations = 11.6

     negative rho (up, down):  1.554E-04 0.000E+00

     total cpu time spent up to now is      397.7 secs

     total energy              =   -1435.70338567 Ry
     estimated scf accuracy    <      16.34452460 Ry

     iteration #  3     ecut=   150.00 Ry     beta= 0.70
     Davidson diagonalization with overlap
     c_bands:  1 eigenvalues not converged
     c_bands:  1 eigenvalues not converged
     c_bands:  1 eigenvalues not converged
     c_bands:  1 eigenvalues not converged
     c_bands:  1 eigenvalues not converged
     c_bands:  2 eigenvalues not converged
     c_bands:  1 eigenvalues not converged
     c_bands:  1 eigenvalues not converged
     c_bands:  2 eigenvalues not converged
     c_bands:  2 eigenvalues not converged
     c_bands:  1 eigenvalues not converged
     c_bands:  3 eigenvalues not converged
     ethr =  2.24E-03,  avg # of iterations = 15.5

     negative rho (up, down):  1.140E-04 0.000E+00

     total cpu time spent up to now is      569.7 secs

     total energy              =   -1434.24025201 Ry
     estimated scf accuracy    <      85.40146980 Ry

     iteration #  4     ecut=   150.00 Ry     beta= 0.70
     Davidson diagonalization with overlap
     ethr =  2.24E-03,  avg # of iterations =  9.7

     negative rho (up, down):  1.112E-04 0.000E+00

     total cpu time spent up to now is      707.4 secs

     total energy              =   -1438.26460625 Ry
     estimated scf accuracy    <       1.04035495 Ry

     iteration #  5     ecut=   150.00 Ry     beta= 0.70
     Davidson diagonalization with overlap
     ethr =  1.49E-03,  avg # of iterations =  2.1

     negative rho (up, down):  1.215E-04 0.000E+00

     total cpu time spent up to now is      783.4 secs

     total energy              =   -1438.25071020 Ry
     estimated scf accuracy    <       0.37906308 Ry

     iteration #  6     ecut=   150.00 Ry     beta= 0.70
     Davidson diagonalization with overlap
     ethr =  5.42E-04,  avg # of iterations =  6.9

     negative rho (up, down):  1.208E-04 0.000E+00

     total cpu time spent up to now is      888.5 secs

     total energy              =   -1438.35428702 Ry
     estimated scf accuracy    <       0.04132024 Ry

     iteration #  7     ecut=   150.00 Ry     beta= 0.70
     Davidson diagonalization with overlap
     ethr =  5.90E-05,  avg # of iterations =  6.9

     negative rho (up, down):  1.226E-04 0.000E+00

     total cpu time spent up to now is      982.1 secs

     total energy              =   -1438.35363787 Ry
     estimated scf accuracy    <       0.03476785 Ry

     iteration #  8     ecut=   150.00 Ry     beta= 0.70
     Davidson diagonalization with overlap
     ethr =  4.97E-05,  avg # of iterations =  4.5

     negative rho (up, down):  1.355E-04 0.000E+00

     total cpu time spent up to now is     1068.8 secs

     total energy              =   -1438.35512582 Ry
     estimated scf accuracy    <       0.00729838 Ry

     iteration #  9     ecut=   150.00 Ry     beta= 0.70
     Davidson diagonalization with overlap
     c_bands:  1 eigenvalues not converged
     ethr =  1.04E-05,  avg # of iterations =  9.4

     negative rho (up, down):  1.413E-04 0.000E+00

     total cpu time spent up to now is     1214.8 secs

     total energy              =   -1438.35692306 Ry
     estimated scf accuracy    <       0.07730684 Ry

     iteration # 10     ecut=   150.00 Ry     beta= 0.70
     Davidson diagonalization with overlap
     ethr =  1.04E-05,  avg # of iterations =  5.4

     negative rho (up, down):  1.428E-04 0.000E+00

     total cpu time spent up to now is     1323.3 secs

     total energy              =   -1438.35552053 Ry
     estimated scf accuracy    <       0.01771674 Ry

     iteration # 11     ecut=   150.00 Ry     beta= 0.70
     Davidson diagonalization with overlap
     ethr =  1.04E-05,  avg # of iterations =  6.1

     negative rho (up, down):  1.492E-04 0.000E+00

     total cpu time spent up to now is     1430.8 secs

     total energy              =   -1438.35835418 Ry
     estimated scf accuracy    <       0.00013303 Ry

     iteration # 12     ecut=   150.00 Ry     beta= 0.70
     Davidson diagonalization with overlap
     c_bands:  1 eigenvalues not converged
     c_bands:  1 eigenvalues not converged
     ethr =  1.90E-07,  avg # of iterations = 10.0

     negative rho (up, down):  1.577E-04 0.000E+00

     total cpu time spent up to now is     1569.0 secs

     total energy              =   -1438.35849971 Ry
     estimated scf accuracy    <       0.00004094 Ry

     iteration # 13     ecut=   150.00 Ry     beta= 0.70
     Davidson diagonalization with overlap
     c_bands:  1 eigenvalues not converged
     ethr =  5.85E-08,  avg # of iterations =  8.1

     negative rho (up, down):  1.656E-04 0.000E+00

     total cpu time spent up to now is     1686.4 secs

     total energy              =   -1438.35851162 Ry
     estimated scf accuracy    <       0.00007777 Ry

     iteration # 14     ecut=   150.00 Ry     beta= 0.70
     Davidson diagonalization with overlap
     c_bands:  1 eigenvalues not converged
     ethr =  5.85E-08,  avg # of iterations =  2.7

     negative rho (up, down):  1.655E-04 0.000E+00

     total cpu time spent up to now is     1766.6 secs

     total energy              =   -1438.35852549 Ry
     estimated scf accuracy    <       0.00003863 Ry

     iteration # 15     ecut=   150.00 Ry     beta= 0.70
     Davidson diagonalization with overlap
     c_bands:  1 eigenvalues not converged
     ethr =  5.52E-08,  avg # of iterations =  2.6

     negative rho (up, down):  1.683E-04 0.000E+00

     total cpu time spent up to now is     1845.3 secs

     total energy              =   -1438.35852038 Ry
     estimated scf accuracy    <       0.00002456 Ry

     iteration # 16     ecut=   150.00 Ry     beta= 0.70
     Davidson diagonalization with overlap
     ethr =  3.51E-08,  avg # of iterations =  7.3

     negative rho (up, down):  1.682E-04 0.000E+00

     total cpu time spent up to now is     1961.0 secs

     total energy              =   -1438.35852908 Ry
     estimated scf accuracy    <       0.00001589 Ry

     iteration # 17     ecut=   150.00 Ry     beta= 0.70
     Davidson diagonalization with overlap
     ethr =  2.27E-08,  avg # of iterations =  2.0

     negative rho (up, down):  1.690E-04 0.000E+00

     total cpu time spent up to now is     2036.0 secs

     total energy              =   -1438.35852910 Ry
     estimated scf accuracy    <       0.00000923 Ry

     iteration # 18     ecut=   150.00 Ry     beta= 0.70
     Davidson diagonalization with overlap
     ethr =  1.32E-08,  avg # of iterations =  2.1

     negative rho (up, down):  1.697E-04 0.000E+00

     total cpu time spent up to now is     2110.5 secs

     total energy              =   -1438.35852611 Ry
     estimated scf accuracy    <       0.00000630 Ry

     iteration # 19     ecut=   150.00 Ry     beta= 0.70
     Davidson diagonalization with overlap
     c_bands:  1 eigenvalues not converged
     c_bands:  1 eigenvalues not converged
     ethr =  9.00E-09,  avg # of iterations = 12.7

     negative rho (up, down):  1.699E-04 0.000E+00

     total cpu time spent up to now is     2253.9 secs

     total energy              =   -1438.35852295 Ry
     estimated scf accuracy    <       0.00010719 Ry

     iteration # 20     ecut=   150.00 Ry     beta= 0.70
     Davidson diagonalization with overlap
     c_bands:  1 eigenvalues not converged
     ethr =  9.00E-09,  avg # of iterations = 12.6

     negative rho (up, down):  1.707E-04 0.000E+00

     total cpu time spent up to now is     2382.7 secs

     total energy              =   -1438.35852928 Ry
     estimated scf accuracy    <       0.00000135 Ry

     iteration # 21     ecut=   150.00 Ry     beta= 0.70
     Davidson diagonalization with overlap
     c_bands:  1 eigenvalues not converged
     ethr =  1.93E-09,  avg # of iterations =  4.4

     negative rho (up, down):  1.707E-04 0.000E+00

     total cpu time spent up to now is     2464.7 secs

     total energy              =   -1438.35852933 Ry
     estimated scf accuracy    <       0.00000063 Ry

     iteration # 22     ecut=   150.00 Ry     beta= 0.70
     Davidson diagonalization with overlap
     c_bands:  1 eigenvalues not converged
     ethr =  8.97E-10,  avg # of iterations =  6.2

     negative rho (up, down):  1.705E-04 0.000E+00

     total cpu time spent up to now is     2561.9 secs

     total energy              =   -1438.35852944 Ry
     estimated scf accuracy    <       0.00000013 Ry

     iteration # 23     ecut=   150.00 Ry     beta= 0.70
     Davidson diagonalization with overlap
     c_bands:  1 eigenvalues not converged
     ethr =  1.86E-10,  avg # of iterations =  5.1

     negative rho (up, down):  1.705E-04 0.000E+00

     total cpu time spent up to now is     2655.9 secs

     total energy              =   -1438.35852948 Ry
     estimated scf accuracy    <       0.00000005 Ry

     iteration # 24     ecut=   150.00 Ry     beta= 0.70
     Davidson diagonalization with overlap
     c_bands:  1 eigenvalues not converged
     ethr =  7.02E-11,  avg # of iterations =  4.9

     negative rho (up, down):  1.704E-04 0.000E+00

     total cpu time spent up to now is     2737.3 secs

     total energy              =   -1438.35852948 Ry
     estimated scf accuracy    <       0.00000002 Ry

     iteration # 25     ecut=   150.00 Ry     beta= 0.70
     Davidson diagonalization with overlap
     c_bands:  1 eigenvalues not converged
     ethr =  2.78E-11,  avg # of iterations =  9.2

     negative rho (up, down):  1.704E-04 0.000E+00

     total cpu time spent up to now is     2847.8 secs

     total energy              =   -1438.35852948 Ry
     estimated scf accuracy    <       0.00000006 Ry

     iteration # 26     ecut=   150.00 Ry     beta= 0.70
     Davidson diagonalization with overlap
     c_bands:  1 eigenvalues not converged
     ethr =  2.78E-11,  avg # of iterations =  1.5

     negative rho (up, down):  1.704E-04 0.000E+00

     total cpu time spent up to now is     2917.2 secs

     total energy              =   -1438.35852948 Ry
     estimated scf accuracy    <       0.00000005 Ry

     iteration # 27     ecut=   150.00 Ry     beta= 0.70
     Davidson diagonalization with overlap
     c_bands:  1 eigenvalues not converged
     ethr =  2.78E-11,  avg # of iterations =  4.2

     negative rho (up, down):  1.704E-04 0.000E+00

     total cpu time spent up to now is     2998.3 secs

     total energy              =   -1438.35852948 Ry
     estimated scf accuracy    <       0.00000002 Ry

     iteration # 28     ecut=   150.00 Ry     beta= 0.70
     Davidson diagonalization with overlap
     ethr =  2.78E-11,  avg # of iterations =  4.4

     negative rho (up, down):  1.704E-04 0.000E+00

     total cpu time spent up to now is     3077.1 secs

     total energy              =   -1438.35852948 Ry
     estimated scf accuracy    <          7.3E-09 Ry

     iteration # 29     ecut=   150.00 Ry     beta= 0.70
     Davidson diagonalization with overlap
     c_bands:  1 eigenvalues not converged
     ethr =  1.05E-11,  avg # of iterations =  8.5

     negative rho (up, down):  1.704E-04 0.000E+00

     total cpu time spent up to now is     3168.8 secs

     total energy              =   -1438.35852948 Ry
     estimated scf accuracy    <          1.0E-10 Ry

     iteration # 30     ecut=   150.00 Ry     beta= 0.70
     Davidson diagonalization with overlap
     c_bands:  1 eigenvalues not converged
     c_bands:  1 eigenvalues not converged
     c_bands:  1 eigenvalues not converged
     c_bands:  1 eigenvalues not converged
     c_bands:  1 eigenvalues not converged
     c_bands:  1 eigenvalues not converged
     ethr =  1.45E-13,  avg # of iterations = 13.0

     negative rho (up, down):  1.704E-04 0.000E+00

     total cpu time spent up to now is     3312.2 secs

     total energy              =   -1438.35852948 Ry
     estimated scf accuracy    <          8.5E-10 Ry

     iteration # 31     ecut=   150.00 Ry     beta= 0.70
     Davidson diagonalization with overlap
     c_bands:  1 eigenvalues not converged
     ethr =  1.45E-13,  avg # of iterations =  9.9

     negative rho (up, down):  1.704E-04 0.000E+00

     total cpu time spent up to now is     3416.1 secs

     total energy              =   -1438.35852948 Ry
     estimated scf accuracy    <          1.3E-11 Ry

     iteration # 32     ecut=   150.00 Ry     beta= 0.70
     Davidson diagonalization with overlap
     c_bands:  1 eigenvalues not converged
     ethr =  1.00E-13,  avg # of iterations =  2.3

     negative rho (up, down):  1.704E-04 0.000E+00

     total cpu time spent up to now is     3490.6 secs

     total energy              =   -1438.35852948 Ry
     estimated scf accuracy    <          1.6E-11 Ry

     iteration # 33     ecut=   150.00 Ry     beta= 0.70
     Davidson diagonalization with overlap
     c_bands:  1 eigenvalues not converged
     ethr =  1.00E-13,  avg # of iterations =  2.2

     negative rho (up, down):  1.704E-04 0.000E+00

     total cpu time spent up to now is     3564.8 secs

     total energy              =   -1438.35852948 Ry
     estimated scf accuracy    <          2.3E-11 Ry

     iteration # 34     ecut=   150.00 Ry     beta= 0.70
     Davidson diagonalization with overlap
     ethr =  1.00E-13,  avg # of iterations =  2.1

     negative rho (up, down):  1.704E-04 0.000E+00

     total cpu time spent up to now is     3637.9 secs

     total energy              =   -1438.35852948 Ry
     estimated scf accuracy    <          3.0E-11 Ry

     iteration # 35     ecut=   150.00 Ry     beta= 0.70
     Davidson diagonalization with overlap
     ethr =  1.00E-13,  avg # of iterations =  1.2

     negative rho (up, down):  1.704E-04 0.000E+00

     total cpu time spent up to now is     3706.8 secs

     total energy              =   -1438.35852948 Ry
     estimated scf accuracy    <          2.7E-11 Ry

     iteration # 36     ecut=   150.00 Ry     beta= 0.70
     Davidson diagonalization with overlap
     ethr =  1.00E-13,  avg # of iterations =  2.0

     negative rho (up, down):  1.704E-04 0.000E+00

     total cpu time spent up to now is     3780.3 secs

     total energy              =   -1438.35852948 Ry
     estimated scf accuracy    <          6.6E-12 Ry

     iteration # 37     ecut=   150.00 Ry     beta= 0.70
     Davidson diagonalization with overlap
     ethr =  1.00E-13,  avg # of iterations =  1.0

     negative rho (up, down):  1.704E-04 0.000E+00

     total cpu time spent up to now is     3847.4 secs

     total energy              =   -1438.35852948 Ry
     estimated scf accuracy    <          5.2E-12 Ry

     iteration # 38     ecut=   150.00 Ry     beta= 0.70
     Davidson diagonalization with overlap
     ethr =  1.00E-13,  avg # of iterations =  1.0

     negative rho (up, down):  1.704E-04 0.000E+00

     total cpu time spent up to now is     3915.2 secs

     total energy              =   -1438.35852948 Ry
     estimated scf accuracy    <          2.1E-12 Ry

     iteration # 39     ecut=   150.00 Ry     beta= 0.70
     Davidson diagonalization with overlap
     ethr =  1.00E-13,  avg # of iterations =  1.0

     negative rho (up, down):  1.704E-04 0.000E+00

     total cpu time spent up to now is     3982.4 secs

     End of self-consistent calculation

     Number of k-points >= 100: set verbosity='high' to print the bands.

     highest occupied level (ev):    -0.4515

!    total energy              =   -1438.35852948 Ry
     estimated scf accuracy    <          4.2E-13 Ry

     The total energy is the sum of the following terms:
     one-electron contribution =  -14003.71741530 Ry
     hartree contribution      =    7032.21015353 Ry
     xc contribution           =    -153.57165905 Ry
     ewald contribution        =    5686.72039133 Ry

     convergence has been achieved in  39 iterations

     negative rho (up, down):  1.704E-04 0.000E+00

     Forces acting on atoms (cartesian axes, Ry/au):

     atom    1 type  2   force =     0.00005895    0.00014997    0.00233836
     atom    2 type  1   force =     0.00001871    0.00008492    0.00327453
     atom    3 type  1   force =    -0.00002059   -0.00013224   -0.00477887
     atom    4 type  3   force =    -0.00002321   -0.00006852   -0.01671602
     atom    5 type  3   force =    -0.00003386   -0.00003414    0.01588199

     Total force =     0.023890     Total SCF correction =     0.000007


     Computing stress (Cartesian axis) and pressure


     negative rho (up, down):  1.704E-04 0.000E+00
          total   stress  (Ry/bohr**3)                   (kbar)     P=      -16.96
  -0.00012504  -0.00000111  -0.00000002          -18.39       -0.16       -0.00
  -0.00000111  -0.00011874  -0.00000040           -0.16      -17.47       -0.06
  -0.00000002  -0.00000040  -0.00010207           -0.00       -0.06      -15.02


     Writing output data file /scratch/as3359/Mos2_ct_lat/Ta2CO.save/
 
     init_run     :     82.98s CPU     44.74s WALL (       1 calls)
     electrons    :   7768.97s CPU   3937.37s WALL (       1 calls)
     forces       :     23.40s CPU     11.97s WALL (       1 calls)
     stress       :    111.89s CPU     57.14s WALL (       1 calls)

     Called by init_run:
     wfcinit      :     70.80s CPU     36.60s WALL (       1 calls)
     potinit      :      3.18s CPU      1.61s WALL (       1 calls)
     hinit0       :      6.90s CPU      5.08s WALL (       1 calls)

     Called by electrons:
     c_bands      :   6662.86s CPU   3361.37s WALL (      39 calls)
     sum_band     :   1019.42s CPU    523.32s WALL (      39 calls)
     v_of_rho     :     12.16s CPU      6.62s WALL (      40 calls)
     newd         :     70.03s CPU     43.64s WALL (      40 calls)
     mix_rho      :      5.44s CPU      2.91s WALL (      39 calls)

     Called by c_bands:
     init_us_2    :    144.78s CPU     72.45s WALL (    9153 calls)
     cegterg      :   6243.18s CPU   3149.76s WALL (    4407 calls)

     Called by *egterg:
     cdiaghg      :     67.14s CPU     34.35s WALL (   30555 calls)
     h_psi        :   4803.53s CPU   2428.36s WALL (   30668 calls)
     s_psi        :    313.81s CPU    157.01s WALL (   30668 calls)
     g_psi        :     30.17s CPU     15.14s WALL (   26148 calls)

     Called by h_psi:
     h_psi:calbec :    243.61s CPU    122.04s WALL (   30668 calls)
     vloc_psi     :   4187.54s CPU   2119.57s WALL (   30668 calls)
     add_vuspsi   :    333.91s CPU    167.10s WALL (   30668 calls)

     General routines
     calbec       :    307.55s CPU    154.08s WALL (   35640 calls)
     fft          :      5.96s CPU      3.08s WALL (     465 calls)
     ffts         :      0.47s CPU      0.24s WALL (      39 calls)
     fftw         :   4259.32s CPU   2157.72s WALL ( 1046859 calls)
 
     Parallel routines
 
     PWSCF        :      2h13m CPU      1h 7m WALL

 
   This run was terminated on:  21:44:53  14Apr2022            

=------------------------------------------------------------------------------=
   JOB DONE.
=------------------------------------------------------------------------------=
