
     Program PWSCF v.6.8 starts on 15Apr2022 at  9:34:44 

     This program is part of the open-source Quantum ESPRESSO suite
     for quantum simulation of materials; please cite
         "P. Giannozzi et al., J. Phys.:Condens. Matter 21 395502 (2009);
         "P. Giannozzi et al., J. Phys.:Condens. Matter 29 465901 (2017);
         "P. Giannozzi et al., J. Chem. Phys. 152 154105 (2020);
          URL http://www.quantum-espresso.org", 
     in publications or presentations arising from this work. More details at
     http://www.quantum-espresso.org/quote

     Parallel version (MPI & OpenMP), running on       4 processor cores
     Number of MPI processes:                 2
     Threads/MPI process:                     2

     MPI processes distributed on     1 nodes
     R & G space division:  proc/nbgrp/npool/nimage =       2
     125226 MiB available memory on the printing compute node when the environment starts
 
     Reading input from Ta2CO.scf.5.500.in
Warning: card  &CELL ignored
Warning: card     CELL_DYNAMICS='BFGS' ignored
Warning: card  / ignored

     Current dimensions of program PWSCF are:
     Max number of different atomic species (ntypx) = 10
     Max number of k-points (npk) =  40000
     Max angular momentum in pseudopotentials (lmaxx) =  4
     file Ta.pbesol-spfn-rrkjus_psl.1.0.0.UPF: wavefunction(s)  5S 5P renormalized

     Subspace diagonalization in iterative solution of the eigenvalue problem:
     a serial algorithm will be used

 
     Parallelization info
     --------------------
     sticks:   dense  smooth     PW     G-vecs:    dense   smooth      PW
     Min         684     684    198               194404   194404   30798
     Max         685     685    199               194425   194425   30811
     Sum        1369    1369    397               388829   388829   61609
 
     Using Slab Decomposition
 


     bravais-lattice index     =            0
     lattice parameter (alat)  =       5.5000  a.u.
     unit-cell volume          =    1565.6111 (a.u.)^3
     number of atoms/cell      =            5
     number of atomic types    =            3
     number of electrons       =        70.00
     number of Kohn-Sham states=           35
     kinetic-energy cutoff     =     150.0000  Ry
     charge density cutoff     =     600.0000  Ry
     scf convergence threshold =      1.0E-12
     mixing beta               =       0.7000
     number of iterations used =            8  plain     mixing
     Exchange-correlation= PBESOL
                           (   1   4  10   8   0   0   0)

     celldm(1)=   5.500000  celldm(2)=   0.000000  celldm(3)=   0.000000
     celldm(4)=   0.000000  celldm(5)=   0.000000  celldm(6)=   0.000000

     crystal axes: (cart. coord. in units of alat)
               a(1) = (   1.043500   0.000814   0.000000 )  
               a(2) = (  -0.521746   0.901379   0.000000 )  
               a(3) = (   0.000000   0.000000  10.000000 )  

     reciprocal axes: (cart. coord. in units 2 pi/alat)
               b(1) = (  0.957881  0.554451  0.000000 )  
               b(2) = ( -0.000865  1.108910  0.000000 )  
               b(3) = (  0.000000  0.000000  0.100000 )  


     PseudoPot. # 1 for Ta read from file:
     /shared/home/as3359/pseudo/Ta.pbesol-spfn-rrkjus_psl.1.0.0.UPF
     MD5 check sum: f099565ffaca9b150a52e9412a28e20b
     Pseudo is Ultrasoft + core correction, Zval = 27.0
     Generated using &quot;atomic&quot; code by A. Dal Corso  v.6.3
     Using radial grid of 1273 points,  8 beta functions with: 
                l(1) =   0
                l(2) =   0
                l(3) =   1
                l(4) =   1
                l(5) =   2
                l(6) =   2
                l(7) =   3
                l(8) =   3
     Q(r) pseudized with 0 coefficients 


     PseudoPot. # 2 for C  read from file:
     /shared/home/as3359/pseudo/C.pbesol-n-rrkjus_psl.1.0.0.UPF
     MD5 check sum: 05995be603a8a7c99da3dc4413f31573
     Pseudo is Ultrasoft + core correction, Zval =  4.0
     Generated using &quot;atomic&quot; code by A. Dal Corso  v.6.3MaX
     Using radial grid of 1073 points,  4 beta functions with: 
                l(1) =   0
                l(2) =   0
                l(3) =   1
                l(4) =   1
     Q(r) pseudized with 0 coefficients 


     PseudoPot. # 3 for O  read from file:
     /shared/home/as3359/pseudo/O.pbesol-n-rrkjus_psl.1.0.0.UPF
     MD5 check sum: dd9bad2534826f832ffc9296591fc5de
     Pseudo is Ultrasoft + core correction, Zval =  6.0
     Generated using &quot;atomic&quot; code by A. Dal Corso  v.6.3MaX
     Using radial grid of 1095 points,  4 beta functions with: 
                l(1) =   0
                l(2) =   0
                l(3) =   1
                l(4) =   1
     Q(r) pseudized with 0 coefficients 


     atomic species   valence    mass     pseudopotential
        Ta            27.00   180.94788     Ta( 1.00)
        C              4.00    12.01070     C ( 1.00)
        O              6.00    15.99940     O ( 1.00)

     No symmetry found



   Cartesian axes

     site n.     atom                  positions (alat units)
         1           C   tau(   1) = (  -0.1377536   0.0179990   0.0193518  )
         2           Ta  tau(   2) = (   0.3841239   0.3191886  -0.4303721  )
         3           Ta  tau(   3) = (  -0.1376121   0.6197216   0.4272316  )
         4           O   tau(   4) = (   0.3845132   0.3204022   0.8049677  )
         5           O   tau(   5) = (  -0.1374316   0.0186104  -0.8211265  )

     number of k points=   113

     Number of k-points >= 100: set verbosity='high' to print them.

     Dense  grid:   388829 G-vectors     FFT dimensions: (  45,  45, 432)

     Estimated max dynamical RAM per process >       3.30 GB

     Estimated total dynamical RAM >       6.59 GB

     Atomic positions and unit cell read from directory:
     /scratch/as3359/Mos2_ct_lat/Ta2CO.save/
     Message from routine qexsd_readschema :
     xml data file /scratch/as3359/Mos2_ct_lat/Ta2CO.save/data-file-schema.xml not fo
     Nothing found: using input atomic positions and unit cell

     Cannot read rho : file not found

     Initial potential from superposition of free atoms

     starting charge   69.99841, renormalised to   70.00000

     negative rho (up, down):  1.214E-04 0.000E+00
     Message from routine qexsd_readschema :
     xml data file /scratch/as3359/Mos2_ct_lat/Ta2CO.save/data-file-schema.xml not fo
     Cannot read wfcs: file not found
     Starting wfcs are   46 randomized atomic wfcs

     total cpu time spent up to now is       43.4 secs

     Self-consistent Calculation

     iteration #  1     ecut=   150.00 Ry     beta= 0.70
     Davidson diagonalization with overlap
     ethr =  1.00E-05,  avg # of iterations =  9.2

     negative rho (up, down):  1.439E-04 0.000E+00

     total cpu time spent up to now is      243.9 secs

     total energy              =   -1437.57590895 Ry
     estimated scf accuracy    <       1.53014408 Ry

     iteration #  2     ecut=   150.00 Ry     beta= 0.70
     Davidson diagonalization with overlap
     ethr =  2.19E-03,  avg # of iterations = 11.5

     negative rho (up, down):  1.476E-04 0.000E+00

     total cpu time spent up to now is      373.0 secs

     total energy              =   -1435.89828748 Ry
     estimated scf accuracy    <      14.08093405 Ry

     iteration #  3     ecut=   150.00 Ry     beta= 0.70
     Davidson diagonalization with overlap
     c_bands:  1 eigenvalues not converged
     c_bands:  1 eigenvalues not converged
     c_bands:  1 eigenvalues not converged
     c_bands:  1 eigenvalues not converged
     c_bands:  1 eigenvalues not converged
     ethr =  2.19E-03,  avg # of iterations = 14.9

     negative rho (up, down):  1.094E-04 0.000E+00

     total cpu time spent up to now is      530.2 secs

     total energy              =   -1434.33987838 Ry
     estimated scf accuracy    <      80.43470808 Ry

     iteration #  4     ecut=   150.00 Ry     beta= 0.70
     Davidson diagonalization with overlap
     ethr =  2.19E-03,  avg # of iterations =  9.5

     negative rho (up, down):  1.079E-04 0.000E+00

     total cpu time spent up to now is      658.1 secs

     total energy              =   -1438.27852955 Ry
     estimated scf accuracy    <       0.88540473 Ry

     iteration #  5     ecut=   150.00 Ry     beta= 0.70
     Davidson diagonalization with overlap
     ethr =  1.26E-03,  avg # of iterations =  2.1

     negative rho (up, down):  1.184E-04 0.000E+00

     total cpu time spent up to now is      729.9 secs

     total energy              =   -1438.26249197 Ry
     estimated scf accuracy    <       0.32758866 Ry

     iteration #  6     ecut=   150.00 Ry     beta= 0.70
     Davidson diagonalization with overlap
     ethr =  4.68E-04,  avg # of iterations =  6.6

     negative rho (up, down):  1.173E-04 0.000E+00

     total cpu time spent up to now is      828.7 secs

     total energy              =   -1438.35521923 Ry
     estimated scf accuracy    <       0.04165829 Ry

     iteration #  7     ecut=   150.00 Ry     beta= 0.70
     Davidson diagonalization with overlap
     ethr =  5.95E-05,  avg # of iterations =  5.2

     negative rho (up, down):  1.219E-04 0.000E+00

     total cpu time spent up to now is      909.3 secs

     total energy              =   -1438.35097670 Ry
     estimated scf accuracy    <       0.02836266 Ry

     iteration #  8     ecut=   150.00 Ry     beta= 0.70
     Davidson diagonalization with overlap
     ethr =  4.05E-05,  avg # of iterations =  6.5

     negative rho (up, down):  1.306E-04 0.000E+00

     total cpu time spent up to now is     1003.7 secs

     total energy              =   -1438.35907278 Ry
     estimated scf accuracy    <       0.00613015 Ry

     iteration #  9     ecut=   150.00 Ry     beta= 0.70
     Davidson diagonalization with overlap
     ethr =  8.76E-06,  avg # of iterations =  6.0

     negative rho (up, down):  1.378E-04 0.000E+00

     total cpu time spent up to now is     1103.2 secs

     total energy              =   -1438.35794913 Ry
     estimated scf accuracy    <       0.01799213 Ry

     iteration # 10     ecut=   150.00 Ry     beta= 0.70
     Davidson diagonalization with overlap
     ethr =  8.76E-06,  avg # of iterations =  2.0

     negative rho (up, down):  1.381E-04 0.000E+00

     total cpu time spent up to now is     1174.8 secs

     total energy              =   -1438.35539792 Ry
     estimated scf accuracy    <       0.01015208 Ry

     iteration # 11     ecut=   150.00 Ry     beta= 0.70
     Davidson diagonalization with overlap
     ethr =  8.76E-06,  avg # of iterations =  6.1

     negative rho (up, down):  1.409E-04 0.000E+00

     total cpu time spent up to now is     1277.7 secs

     total energy              =   -1438.35789015 Ry
     estimated scf accuracy    <       0.00033404 Ry

     iteration # 12     ecut=   150.00 Ry     beta= 0.70
     Davidson diagonalization with overlap
     ethr =  4.77E-07,  avg # of iterations =  6.9

     negative rho (up, down):  1.504E-04 0.000E+00

     total cpu time spent up to now is     1377.0 secs

     total energy              =   -1438.35801146 Ry
     estimated scf accuracy    <       0.00011545 Ry

     iteration # 13     ecut=   150.00 Ry     beta= 0.70
     Davidson diagonalization with overlap
     ethr =  1.65E-07,  avg # of iterations =  3.1

     negative rho (up, down):  1.573E-04 0.000E+00

     total cpu time spent up to now is     1452.9 secs

     total energy              =   -1438.35798225 Ry
     estimated scf accuracy    <       0.00013531 Ry

     iteration # 14     ecut=   150.00 Ry     beta= 0.70
     Davidson diagonalization with overlap
     ethr =  1.65E-07,  avg # of iterations =  2.6

     negative rho (up, down):  1.622E-04 0.000E+00

     total cpu time spent up to now is     1527.1 secs

     total energy              =   -1438.35798361 Ry
     estimated scf accuracy    <       0.00004505 Ry

     iteration # 15     ecut=   150.00 Ry     beta= 0.70
     Davidson diagonalization with overlap
     ethr =  6.44E-08,  avg # of iterations =  5.7

     negative rho (up, down):  1.623E-04 0.000E+00

     total cpu time spent up to now is     1626.1 secs

     total energy              =   -1438.35799979 Ry
     estimated scf accuracy    <       0.00000561 Ry

     iteration # 16     ecut=   150.00 Ry     beta= 0.70
     Davidson diagonalization with overlap
     c_bands:  1 eigenvalues not converged
     ethr =  8.02E-09,  avg # of iterations =  6.4

     negative rho (up, down):  1.622E-04 0.000E+00

     total cpu time spent up to now is     1724.3 secs

     total energy              =   -1438.35800114 Ry
     estimated scf accuracy    <       0.00001441 Ry

     iteration # 17     ecut=   150.00 Ry     beta= 0.70
     Davidson diagonalization with overlap
     c_bands:  1 eigenvalues not converged
     ethr =  8.02E-09,  avg # of iterations =  1.5

     negative rho (up, down):  1.627E-04 0.000E+00

     total cpu time spent up to now is     1789.7 secs

     total energy              =   -1438.35800637 Ry
     estimated scf accuracy    <       0.00001639 Ry

     iteration # 18     ecut=   150.00 Ry     beta= 0.70
     Davidson diagonalization with overlap
     c_bands:  1 eigenvalues not converged
     ethr =  8.02E-09,  avg # of iterations =  1.7

     negative rho (up, down):  1.625E-04 0.000E+00

     total cpu time spent up to now is     1855.8 secs

     total energy              =   -1438.35802075 Ry
     estimated scf accuracy    <       0.00001551 Ry

     iteration # 19     ecut=   150.00 Ry     beta= 0.70
     Davidson diagonalization with overlap
     c_bands:  1 eigenvalues not converged
     ethr =  8.02E-09,  avg # of iterations =  1.3

     negative rho (up, down):  1.622E-04 0.000E+00

     total cpu time spent up to now is     1920.5 secs

     total energy              =   -1438.35802366 Ry
     estimated scf accuracy    <       0.00001437 Ry

     iteration # 20     ecut=   150.00 Ry     beta= 0.70
     Davidson diagonalization with overlap
     c_bands:  1 eigenvalues not converged
     ethr =  8.02E-09,  avg # of iterations =  1.6

     negative rho (up, down):  1.620E-04 0.000E+00

     total cpu time spent up to now is     1986.3 secs

     total energy              =   -1438.35802289 Ry
     estimated scf accuracy    <       0.00001203 Ry

     iteration # 21     ecut=   150.00 Ry     beta= 0.70
     Davidson diagonalization with overlap
     c_bands:  1 eigenvalues not converged
     ethr =  8.02E-09,  avg # of iterations =  3.1

     negative rho (up, down):  1.631E-04 0.000E+00

     total cpu time spent up to now is     2061.9 secs

     total energy              =   -1438.35802325 Ry
     estimated scf accuracy    <       0.00000783 Ry

     iteration # 22     ecut=   150.00 Ry     beta= 0.70
     Davidson diagonalization with overlap
     ethr =  8.02E-09,  avg # of iterations =  2.0

     negative rho (up, down):  1.638E-04 0.000E+00

     total cpu time spent up to now is     2131.2 secs

     total energy              =   -1438.35802341 Ry
     estimated scf accuracy    <       0.00000660 Ry

     iteration # 23     ecut=   150.00 Ry     beta= 0.70
     Davidson diagonalization with overlap
     ethr =  8.02E-09,  avg # of iterations =  1.9

     negative rho (up, down):  1.642E-04 0.000E+00

     total cpu time spent up to now is     2199.7 secs

     total energy              =   -1438.35802347 Ry
     estimated scf accuracy    <       0.00000599 Ry

     iteration # 24     ecut=   150.00 Ry     beta= 0.70
     Davidson diagonalization with overlap
     ethr =  8.02E-09,  avg # of iterations =  1.8

     negative rho (up, down):  1.642E-04 0.000E+00

     total cpu time spent up to now is     2267.0 secs

     total energy              =   -1438.35802336 Ry
     estimated scf accuracy    <       0.00000559 Ry

     iteration # 25     ecut=   150.00 Ry     beta= 0.70
     Davidson diagonalization with overlap
     ethr =  7.99E-09,  avg # of iterations =  2.0

     negative rho (up, down):  1.645E-04 0.000E+00

     total cpu time spent up to now is     2336.5 secs

     total energy              =   -1438.35802211 Ry
     estimated scf accuracy    <       0.00000493 Ry

     iteration # 26     ecut=   150.00 Ry     beta= 0.70
     Davidson diagonalization with overlap
     c_bands:  1 eigenvalues not converged
     ethr =  7.04E-09,  avg # of iterations =  4.7

     negative rho (up, down):  1.638E-04 0.000E+00

     total cpu time spent up to now is     2414.8 secs

     total energy              =   -1438.35802150 Ry
     estimated scf accuracy    <       0.00000368 Ry

     iteration # 27     ecut=   150.00 Ry     beta= 0.70
     Davidson diagonalization with overlap
     ethr =  5.25E-09,  avg # of iterations =  8.6

     negative rho (up, down):  1.650E-04 0.000E+00

     total cpu time spent up to now is     2512.0 secs

     total energy              =   -1438.35802120 Ry
     estimated scf accuracy    <       0.00001573 Ry

     iteration # 28     ecut=   150.00 Ry     beta= 0.70
     Davidson diagonalization with overlap
     ethr =  5.25E-09,  avg # of iterations =  7.6

     negative rho (up, down):  1.650E-04 0.000E+00

     total cpu time spent up to now is     2602.4 secs

     total energy              =   -1438.35802186 Ry
     estimated scf accuracy    <       0.00000113 Ry

     iteration # 29     ecut=   150.00 Ry     beta= 0.70
     Davidson diagonalization with overlap
     c_bands:  1 eigenvalues not converged
     ethr =  1.61E-09,  avg # of iterations =  7.5

     negative rho (up, down):  1.649E-04 0.000E+00

     total cpu time spent up to now is     2691.5 secs

     total energy              =   -1438.35802204 Ry
     estimated scf accuracy    <       0.00000033 Ry

     iteration # 30     ecut=   150.00 Ry     beta= 0.70
     Davidson diagonalization with overlap
     c_bands:  1 eigenvalues not converged
     ethr =  4.66E-10,  avg # of iterations =  3.0

     negative rho (up, down):  1.648E-04 0.000E+00

     total cpu time spent up to now is     2765.0 secs

     total energy              =   -1438.35802201 Ry
     estimated scf accuracy    <       0.00000031 Ry

     iteration # 31     ecut=   150.00 Ry     beta= 0.70
     Davidson diagonalization with overlap
     ethr =  4.46E-10,  avg # of iterations =  2.8

     negative rho (up, down):  1.646E-04 0.000E+00

     total cpu time spent up to now is     2837.2 secs

     total energy              =   -1438.35802200 Ry
     estimated scf accuracy    <       0.00000013 Ry

     iteration # 32     ecut=   150.00 Ry     beta= 0.70
     Davidson diagonalization with overlap
     ethr =  1.79E-10,  avg # of iterations =  8.0

     negative rho (up, down):  1.645E-04 0.000E+00

     total cpu time spent up to now is     2942.7 secs

     total energy              =   -1438.35802206 Ry
     estimated scf accuracy    <       0.00000009 Ry

     iteration # 33     ecut=   150.00 Ry     beta= 0.70
     Davidson diagonalization with overlap
     ethr =  1.29E-10,  avg # of iterations =  1.5

     negative rho (up, down):  1.645E-04 0.000E+00

     total cpu time spent up to now is     3008.6 secs

     total energy              =   -1438.35802205 Ry
     estimated scf accuracy    <       0.00000007 Ry

     iteration # 34     ecut=   150.00 Ry     beta= 0.70
     Davidson diagonalization with overlap
     ethr =  9.97E-11,  avg # of iterations =  1.2

     negative rho (up, down):  1.645E-04 0.000E+00

     total cpu time spent up to now is     3073.2 secs

     total energy              =   -1438.35802204 Ry
     estimated scf accuracy    <       0.00000005 Ry

     iteration # 35     ecut=   150.00 Ry     beta= 0.70
     Davidson diagonalization with overlap
     ethr =  7.51E-11,  avg # of iterations =  5.8

     negative rho (up, down):  1.645E-04 0.000E+00

     total cpu time spent up to now is     3155.1 secs

     total energy              =   -1438.35802205 Ry
     estimated scf accuracy    <          3.1E-09 Ry

     iteration # 36     ecut=   150.00 Ry     beta= 0.70
     Davidson diagonalization with overlap
     c_bands:  1 eigenvalues not converged
     c_bands:  1 eigenvalues not converged
     ethr =  4.43E-12,  avg # of iterations = 11.5

     negative rho (up, down):  1.645E-04 0.000E+00

     total cpu time spent up to now is     3290.0 secs

     total energy              =   -1438.35802205 Ry
     estimated scf accuracy    <       0.00000003 Ry

     iteration # 37     ecut=   150.00 Ry     beta= 0.70
     Davidson diagonalization with overlap
     c_bands:  1 eigenvalues not converged
     ethr =  4.43E-12,  avg # of iterations =  7.7

     negative rho (up, down):  1.645E-04 0.000E+00

     total cpu time spent up to now is     3390.8 secs

     total energy              =   -1438.35802205 Ry
     estimated scf accuracy    <          6.1E-09 Ry

     iteration # 38     ecut=   150.00 Ry     beta= 0.70
     Davidson diagonalization with overlap
     ethr =  4.43E-12,  avg # of iterations =  1.2

     negative rho (up, down):  1.645E-04 0.000E+00

     total cpu time spent up to now is     3455.4 secs

     total energy              =   -1438.35802205 Ry
     estimated scf accuracy    <          5.6E-09 Ry

     iteration # 39     ecut=   150.00 Ry     beta= 0.70
     Davidson diagonalization with overlap
     ethr =  4.43E-12,  avg # of iterations =  8.5

     negative rho (up, down):  1.645E-04 0.000E+00

     total cpu time spent up to now is     3545.2 secs

     total energy              =   -1438.35802205 Ry
     estimated scf accuracy    <          5.3E-10 Ry

     iteration # 40     ecut=   150.00 Ry     beta= 0.70
     Davidson diagonalization with overlap
     ethr =  7.54E-13,  avg # of iterations =  6.6

     negative rho (up, down):  1.645E-04 0.000E+00

     total cpu time spent up to now is     3640.3 secs

     total energy              =   -1438.35802205 Ry
     estimated scf accuracy    <          3.3E-10 Ry

     iteration # 41     ecut=   150.00 Ry     beta= 0.70
     Davidson diagonalization with overlap
     ethr =  4.73E-13,  avg # of iterations =  1.6

     negative rho (up, down):  1.645E-04 0.000E+00

     total cpu time spent up to now is     3707.0 secs

     total energy              =   -1438.35802205 Ry
     estimated scf accuracy    <          2.8E-10 Ry

     iteration # 42     ecut=   150.00 Ry     beta= 0.70
     Davidson diagonalization with overlap
     ethr =  3.95E-13,  avg # of iterations =  9.0

     negative rho (up, down):  1.645E-04 0.000E+00

     total cpu time spent up to now is     3797.7 secs

     total energy              =   -1438.35802205 Ry
     estimated scf accuracy    <          1.9E-10 Ry

     iteration # 43     ecut=   150.00 Ry     beta= 0.70
     Davidson diagonalization with overlap
     ethr =  2.73E-13,  avg # of iterations =  1.6

     negative rho (up, down):  1.645E-04 0.000E+00

     total cpu time spent up to now is     3864.2 secs

     total energy              =   -1438.35802205 Ry
     estimated scf accuracy    <          2.0E-10 Ry

     iteration # 44     ecut=   150.00 Ry     beta= 0.70
     Davidson diagonalization with overlap
     ethr =  2.73E-13,  avg # of iterations =  1.5

     negative rho (up, down):  1.645E-04 0.000E+00

     total cpu time spent up to now is     3930.0 secs

     total energy              =   -1438.35802205 Ry
     estimated scf accuracy    <          1.5E-10 Ry

     iteration # 45     ecut=   150.00 Ry     beta= 0.70
     Davidson diagonalization with overlap
     ethr =  2.12E-13,  avg # of iterations =  3.9

     negative rho (up, down):  1.645E-04 0.000E+00

     total cpu time spent up to now is     4006.3 secs

     total energy              =   -1438.35802205 Ry
     estimated scf accuracy    <          3.1E-11 Ry

     iteration # 46     ecut=   150.00 Ry     beta= 0.70
     Davidson diagonalization with overlap
     ethr =  1.00E-13,  avg # of iterations =  6.8

     negative rho (up, down):  1.645E-04 0.000E+00

     total cpu time spent up to now is     4099.5 secs

     total energy              =   -1438.35802205 Ry
     estimated scf accuracy    <          1.3E-11 Ry

     iteration # 47     ecut=   150.00 Ry     beta= 0.70
     Davidson diagonalization with overlap
     ethr =  1.00E-13,  avg # of iterations =  1.3

     negative rho (up, down):  1.645E-04 0.000E+00

     total cpu time spent up to now is     4165.1 secs

     total energy              =   -1438.35802205 Ry
     estimated scf accuracy    <          1.1E-11 Ry

     iteration # 48     ecut=   150.00 Ry     beta= 0.70
     Davidson diagonalization with overlap
     ethr =  1.00E-13,  avg # of iterations =  1.8

     negative rho (up, down):  1.645E-04 0.000E+00

     total cpu time spent up to now is     4233.6 secs

     End of self-consistent calculation

     Number of k-points >= 100: set verbosity='high' to print the bands.

     highest occupied level (ev):    -0.0805

!    total energy              =   -1438.35802205 Ry
     estimated scf accuracy    <          8.3E-13 Ry

     The total energy is the sum of the following terms:
     one-electron contribution =  -14212.23653742 Ry
     hartree contribution      =    7137.59754792 Ry
     xc contribution           =    -153.83434009 Ry
     ewald contribution        =    5790.11530754 Ry

     convergence has been achieved in  48 iterations

     negative rho (up, down):  1.645E-04 0.000E+00

     Forces acting on atoms (cartesian axes, Ry/au):

     atom    1 type  2   force =     0.00007463    0.00019795   -0.00248771
     atom    2 type  1   force =    -0.00004562   -0.00008349   -0.00365491
     atom    3 type  1   force =     0.00000362   -0.00012207    0.00525829
     atom    4 type  3   force =    -0.00001925   -0.00003193    0.01817145
     atom    5 type  3   force =    -0.00001337    0.00003954   -0.01728712

     Total force =     0.026006     Total SCF correction =     0.000007


     Computing stress (Cartesian axis) and pressure


     negative rho (up, down):  1.645E-04 0.000E+00
          total   stress  (Ry/bohr**3)                   (kbar)     P=       20.22
   0.00014593  -0.00000118   0.00000007           21.47       -0.17        0.01
  -0.00000118   0.00015264  -0.00000025           -0.17       22.45       -0.04
   0.00000007  -0.00000025   0.00011372            0.01       -0.04       16.73


     Writing output data file /scratch/as3359/Mos2_ct_lat/Ta2CO.save/
 
     init_run     :     79.89s CPU     42.98s WALL (       1 calls)
     electrons    :   8260.78s CPU   4190.38s WALL (       1 calls)
     forces       :     21.80s CPU     11.17s WALL (       1 calls)
     stress       :    111.94s CPU     57.03s WALL (       1 calls)

     Called by init_run:
     wfcinit      :     68.16s CPU     35.15s WALL (       1 calls)
     potinit      :      3.05s CPU      1.54s WALL (       1 calls)
     hinit0       :      6.65s CPU      4.88s WALL (       1 calls)

     Called by electrons:
     c_bands      :   6977.74s CPU   3520.92s WALL (      48 calls)
     sum_band     :   1180.73s CPU    606.93s WALL (      48 calls)
     v_of_rho     :     14.05s CPU      7.62s WALL (      49 calls)
     newd         :     82.31s CPU     51.68s WALL (      49 calls)
     mix_rho      :      6.67s CPU      3.53s WALL (      48 calls)

     Called by c_bands:
     init_us_2    :    159.59s CPU     79.85s WALL (   11187 calls)
     cegterg      :   6507.34s CPU   3283.89s WALL (    5424 calls)

     Called by *egterg:
     cdiaghg      :     68.31s CPU     34.95s WALL (   31961 calls)
     h_psi        :   5111.81s CPU   2584.48s WALL (   32074 calls)
     s_psi        :    312.63s CPU    156.45s WALL (   32074 calls)
     g_psi        :     31.10s CPU     15.61s WALL (   26537 calls)

     Called by h_psi:
     h_psi:calbec :    235.03s CPU    117.71s WALL (   32074 calls)
     vloc_psi     :   4507.33s CPU   2281.48s WALL (   32074 calls)
     add_vuspsi   :    327.64s CPU    163.96s WALL (   32074 calls)

     General routines
     calbec       :    305.47s CPU    153.02s WALL (   38063 calls)
     fft          :      6.80s CPU      3.49s WALL (     564 calls)
     ffts         :      0.52s CPU      0.27s WALL (      48 calls)
     fftw         :   4616.26s CPU   2338.69s WALL ( 1205290 calls)
 
     Parallel routines
 
     PWSCF        :      2h21m CPU      1h11m WALL

 
   This run was terminated on:  10:46:34  15Apr2022            

=------------------------------------------------------------------------------=
   JOB DONE.
=------------------------------------------------------------------------------=
