
     Program PWSCF v.6.8 starts on 15Apr2022 at 10:46:36 

     This program is part of the open-source Quantum ESPRESSO suite
     for quantum simulation of materials; please cite
         "P. Giannozzi et al., J. Phys.:Condens. Matter 21 395502 (2009);
         "P. Giannozzi et al., J. Phys.:Condens. Matter 29 465901 (2017);
         "P. Giannozzi et al., J. Chem. Phys. 152 154105 (2020);
          URL http://www.quantum-espresso.org", 
     in publications or presentations arising from this work. More details at
     http://www.quantum-espresso.org/quote

     Parallel version (MPI & OpenMP), running on       4 processor cores
     Number of MPI processes:                 2
     Threads/MPI process:                     2

     MPI processes distributed on     1 nodes
     R & G space division:  proc/nbgrp/npool/nimage =       2
     124997 MiB available memory on the printing compute node when the environment starts
 
     Reading input from Ta2CO.scf.5.525.in
Warning: card  &CELL ignored
Warning: card     CELL_DYNAMICS='BFGS' ignored
Warning: card  / ignored

     Current dimensions of program PWSCF are:
     Max number of different atomic species (ntypx) = 10
     Max number of k-points (npk) =  40000
     Max angular momentum in pseudopotentials (lmaxx) =  4
     Message from routine iosys:
     restart disabled: needed files not found
     file Ta.pbesol-spfn-rrkjus_psl.1.0.0.UPF: wavefunction(s)  5S 5P renormalized

     Subspace diagonalization in iterative solution of the eigenvalue problem:
     a serial algorithm will be used

 
     Parallelization info
     --------------------
     sticks:   dense  smooth     PW     G-vecs:    dense   smooth      PW
     Min         684     684    199               196954   196954   31187
     Max         685     685    202               196997   196997   31190
     Sum        1369    1369    401               393951   393951   62377
 
     Using Slab Decomposition
 


     bravais-lattice index     =            0
     lattice parameter (alat)  =       5.5250  a.u.
     unit-cell volume          =    1587.0575 (a.u.)^3
     number of atoms/cell      =            5
     number of atomic types    =            3
     number of electrons       =        70.00
     number of Kohn-Sham states=           35
     kinetic-energy cutoff     =     150.0000  Ry
     charge density cutoff     =     600.0000  Ry
     scf convergence threshold =      1.0E-12
     mixing beta               =       0.7000
     number of iterations used =            8  plain     mixing
     Exchange-correlation= PBESOL
                           (   1   4  10   8   0   0   0)

     celldm(1)=   5.525000  celldm(2)=   0.000000  celldm(3)=   0.000000
     celldm(4)=   0.000000  celldm(5)=   0.000000  celldm(6)=   0.000000

     crystal axes: (cart. coord. in units of alat)
               a(1) = (   1.043500   0.000814   0.000000 )  
               a(2) = (  -0.521746   0.901379   0.000000 )  
               a(3) = (   0.000000   0.000000  10.000000 )  

     reciprocal axes: (cart. coord. in units 2 pi/alat)
               b(1) = (  0.957881  0.554451  0.000000 )  
               b(2) = ( -0.000865  1.108910  0.000000 )  
               b(3) = (  0.000000  0.000000  0.100000 )  


     PseudoPot. # 1 for Ta read from file:
     /shared/home/as3359/pseudo/Ta.pbesol-spfn-rrkjus_psl.1.0.0.UPF
     MD5 check sum: f099565ffaca9b150a52e9412a28e20b
     Pseudo is Ultrasoft + core correction, Zval = 27.0
     Generated using &quot;atomic&quot; code by A. Dal Corso  v.6.3
     Using radial grid of 1273 points,  8 beta functions with: 
                l(1) =   0
                l(2) =   0
                l(3) =   1
                l(4) =   1
                l(5) =   2
                l(6) =   2
                l(7) =   3
                l(8) =   3
     Q(r) pseudized with 0 coefficients 


     PseudoPot. # 2 for C  read from file:
     /shared/home/as3359/pseudo/C.pbesol-n-rrkjus_psl.1.0.0.UPF
     MD5 check sum: 05995be603a8a7c99da3dc4413f31573
     Pseudo is Ultrasoft + core correction, Zval =  4.0
     Generated using &quot;atomic&quot; code by A. Dal Corso  v.6.3MaX
     Using radial grid of 1073 points,  4 beta functions with: 
                l(1) =   0
                l(2) =   0
                l(3) =   1
                l(4) =   1
     Q(r) pseudized with 0 coefficients 


     PseudoPot. # 3 for O  read from file:
     /shared/home/as3359/pseudo/O.pbesol-n-rrkjus_psl.1.0.0.UPF
     MD5 check sum: dd9bad2534826f832ffc9296591fc5de
     Pseudo is Ultrasoft + core correction, Zval =  6.0
     Generated using &quot;atomic&quot; code by A. Dal Corso  v.6.3MaX
     Using radial grid of 1095 points,  4 beta functions with: 
                l(1) =   0
                l(2) =   0
                l(3) =   1
                l(4) =   1
     Q(r) pseudized with 0 coefficients 


     atomic species   valence    mass     pseudopotential
        Ta            27.00   180.94788     Ta( 1.00)
        C              4.00    12.01070     C ( 1.00)
        O              6.00    15.99940     O ( 1.00)

     No symmetry found



   Cartesian axes

     site n.     atom                  positions (alat units)
         1           C   tau(   1) = (  -0.1377536   0.0179990   0.0193518  )
         2           Ta  tau(   2) = (   0.3841239   0.3191886  -0.4303721  )
         3           Ta  tau(   3) = (  -0.1376121   0.6197216   0.4272316  )
         4           O   tau(   4) = (   0.3845132   0.3204022   0.8049677  )
         5           O   tau(   5) = (  -0.1374316   0.0186104  -0.8211265  )

     number of k points=   113

     Number of k-points >= 100: set verbosity='high' to print them.

     Dense  grid:   393951 G-vectors     FFT dimensions: (  45,  45, 432)

     Estimated max dynamical RAM per process >       3.34 GB

     Estimated total dynamical RAM >       6.68 GB
     Cannot read rho : file not found

     Initial potential from superposition of free atoms

     starting charge   69.99841, renormalised to   70.00000

     negative rho (up, down):  1.248E-04 0.000E+00
     Message from routine qexsd_readschema :
     xml data file /scratch/as3359/Mos2_ct_lat/Ta2CO.save/data-file-schema.xml not fo
     Cannot read wfcs: file not found
     Starting wfcs are   46 randomized atomic wfcs

     total cpu time spent up to now is       43.4 secs

     Self-consistent Calculation

     iteration #  1     ecut=   150.00 Ry     beta= 0.70
     Davidson diagonalization with overlap
     ethr =  1.00E-05,  avg # of iterations =  9.1

     negative rho (up, down):  1.492E-04 0.000E+00

     total cpu time spent up to now is      245.8 secs

     total energy              =   -1437.57047075 Ry
     estimated scf accuracy    <       1.53777058 Ry

     iteration #  2     ecut=   150.00 Ry     beta= 0.70
     Davidson diagonalization with overlap
     ethr =  2.20E-03,  avg # of iterations = 11.4

     negative rho (up, down):  1.531E-04 0.000E+00

     total cpu time spent up to now is      377.1 secs

     total energy              =   -1435.85257495 Ry
     estimated scf accuracy    <      14.64768518 Ry

     iteration #  3     ecut=   150.00 Ry     beta= 0.70
     Davidson diagonalization with overlap
     c_bands:  1 eigenvalues not converged
     c_bands:  1 eigenvalues not converged
     c_bands:  1 eigenvalues not converged
     c_bands:  1 eigenvalues not converged
     c_bands:  2 eigenvalues not converged
     ethr =  2.20E-03,  avg # of iterations = 14.7

     negative rho (up, down):  1.151E-04 0.000E+00

     total cpu time spent up to now is      537.0 secs

     total energy              =   -1434.35081958 Ry
     estimated scf accuracy    <      80.78971050 Ry

     iteration #  4     ecut=   150.00 Ry     beta= 0.70
     Davidson diagonalization with overlap
     ethr =  2.20E-03,  avg # of iterations =  9.5

     negative rho (up, down):  1.132E-04 0.000E+00

     total cpu time spent up to now is      666.1 secs

     total energy              =   -1438.27774672 Ry
     estimated scf accuracy    <       0.92497346 Ry

     iteration #  5     ecut=   150.00 Ry     beta= 0.70
     Davidson diagonalization with overlap
     ethr =  1.32E-03,  avg # of iterations =  2.1

     negative rho (up, down):  1.237E-04 0.000E+00

     total cpu time spent up to now is      738.8 secs

     total energy              =   -1438.26176594 Ry
     estimated scf accuracy    <       0.33807413 Ry

     iteration #  6     ecut=   150.00 Ry     beta= 0.70
     Davidson diagonalization with overlap
     ethr =  4.83E-04,  avg # of iterations =  6.8

     negative rho (up, down):  1.227E-04 0.000E+00

     total cpu time spent up to now is      838.7 secs

     total energy              =   -1438.35738971 Ry
     estimated scf accuracy    <       0.04274407 Ry

     iteration #  7     ecut=   150.00 Ry     beta= 0.70
     Davidson diagonalization with overlap
     ethr =  6.11E-05,  avg # of iterations =  5.6

     negative rho (up, down):  1.275E-04 0.000E+00

     total cpu time spent up to now is      920.4 secs

     total energy              =   -1438.35285481 Ry
     estimated scf accuracy    <       0.02922941 Ry

     iteration #  8     ecut=   150.00 Ry     beta= 0.70
     Davidson diagonalization with overlap
     ethr =  4.18E-05,  avg # of iterations =  6.5

     negative rho (up, down):  1.378E-04 0.000E+00

     total cpu time spent up to now is     1015.8 secs

     total energy              =   -1438.36157545 Ry
     estimated scf accuracy    <       0.00678902 Ry

     iteration #  9     ecut=   150.00 Ry     beta= 0.70
     Davidson diagonalization with overlap
     ethr =  9.70E-06,  avg # of iterations =  5.9

     negative rho (up, down):  1.457E-04 0.000E+00

     total cpu time spent up to now is     1113.5 secs

     total energy              =   -1438.35958286 Ry
     estimated scf accuracy    <       0.02001051 Ry

     iteration # 10     ecut=   150.00 Ry     beta= 0.70
     Davidson diagonalization with overlap
     ethr =  9.70E-06,  avg # of iterations =  2.1

     negative rho (up, down):  1.453E-04 0.000E+00

     total cpu time spent up to now is     1187.1 secs

     total energy              =   -1438.35744086 Ry
     estimated scf accuracy    <       0.01002660 Ry

     iteration # 11     ecut=   150.00 Ry     beta= 0.70
     Davidson diagonalization with overlap
     ethr =  9.70E-06,  avg # of iterations =  6.3

     negative rho (up, down):  1.489E-04 0.000E+00

     total cpu time spent up to now is     1291.3 secs

     total energy              =   -1438.36012778 Ry
     estimated scf accuracy    <       0.00050271 Ry

     iteration # 12     ecut=   150.00 Ry     beta= 0.70
     Davidson diagonalization with overlap
     ethr =  7.18E-07,  avg # of iterations =  6.3

     negative rho (up, down):  1.585E-04 0.000E+00

     total cpu time spent up to now is     1380.5 secs

     total energy              =   -1438.36019317 Ry
     estimated scf accuracy    <       0.00024567 Ry

     iteration # 13     ecut=   150.00 Ry     beta= 0.70
     Davidson diagonalization with overlap
     ethr =  3.51E-07,  avg # of iterations =  2.9

     negative rho (up, down):  1.636E-04 0.000E+00

     total cpu time spent up to now is     1455.5 secs

     total energy              =   -1438.36017789 Ry
     estimated scf accuracy    <       0.00013438 Ry

     iteration # 14     ecut=   150.00 Ry     beta= 0.70
     Davidson diagonalization with overlap
     c_bands:  1 eigenvalues not converged
     ethr =  1.92E-07,  avg # of iterations =  4.8

     negative rho (up, down):  1.656E-04 0.000E+00

     total cpu time spent up to now is     1542.0 secs

     total energy              =   -1438.36023187 Ry
     estimated scf accuracy    <       0.00000890 Ry

     iteration # 15     ecut=   150.00 Ry     beta= 0.70
     Davidson diagonalization with overlap
     c_bands:  1 eigenvalues not converged
     c_bands:  1 eigenvalues not converged
     c_bands:  1 eigenvalues not converged
     ethr =  1.27E-08,  avg # of iterations =  7.3

     negative rho (up, down):  1.650E-04 0.000E+00

     total cpu time spent up to now is     1646.5 secs

     total energy              =   -1438.36023507 Ry
     estimated scf accuracy    <       0.00001293 Ry

     iteration # 16     ecut=   150.00 Ry     beta= 0.70
     Davidson diagonalization with overlap
     ethr =  1.27E-08,  avg # of iterations =  3.5

     negative rho (up, down):  1.671E-04 0.000E+00

     total cpu time spent up to now is     1721.1 secs

     total energy              =   -1438.36023377 Ry
     estimated scf accuracy    <       0.00000451 Ry

     iteration # 17     ecut=   150.00 Ry     beta= 0.70
     Davidson diagonalization with overlap
     ethr =  6.45E-09,  avg # of iterations = 12.1

     negative rho (up, down):  1.697E-04 0.000E+00

     total cpu time spent up to now is     1848.3 secs

     total energy              =   -1438.36023294 Ry
     estimated scf accuracy    <       0.00005035 Ry

     iteration # 18     ecut=   150.00 Ry     beta= 0.70
     Davidson diagonalization with overlap
     ethr =  6.45E-09,  avg # of iterations =  6.8

     negative rho (up, down):  1.700E-04 0.000E+00

     total cpu time spent up to now is     1954.1 secs

     total energy              =   -1438.36023554 Ry
     estimated scf accuracy    <       0.00000918 Ry

     iteration # 19     ecut=   150.00 Ry     beta= 0.70
     Davidson diagonalization with overlap
     ethr =  6.45E-09,  avg # of iterations =  5.8

     negative rho (up, down):  1.705E-04 0.000E+00

     total cpu time spent up to now is     2037.9 secs

     total energy              =   -1438.36023612 Ry
     estimated scf accuracy    <       0.00000399 Ry

     iteration # 20     ecut=   150.00 Ry     beta= 0.70
     Davidson diagonalization with overlap
     ethr =  5.70E-09,  avg # of iterations =  1.3

     negative rho (up, down):  1.704E-04 0.000E+00

     total cpu time spent up to now is     2103.2 secs

     total energy              =   -1438.36023543 Ry
     estimated scf accuracy    <       0.00000394 Ry

     iteration # 21     ecut=   150.00 Ry     beta= 0.70
     Davidson diagonalization with overlap
     ethr =  5.64E-09,  avg # of iterations =  2.1

     negative rho (up, down):  1.697E-04 0.000E+00

     total cpu time spent up to now is     2174.8 secs

     total energy              =   -1438.36023531 Ry
     estimated scf accuracy    <       0.00000283 Ry

     iteration # 22     ecut=   150.00 Ry     beta= 0.70
     Davidson diagonalization with overlap
     ethr =  4.04E-09,  avg # of iterations =  6.2

     negative rho (up, down):  1.697E-04 0.000E+00

     total cpu time spent up to now is     2272.3 secs

     total energy              =   -1438.36023560 Ry
     estimated scf accuracy    <       0.00000470 Ry

     iteration # 23     ecut=   150.00 Ry     beta= 0.70
     Davidson diagonalization with overlap
     ethr =  4.04E-09,  avg # of iterations =  2.0

     negative rho (up, down):  1.697E-04 0.000E+00

     total cpu time spent up to now is     2341.7 secs

     total energy              =   -1438.36023550 Ry
     estimated scf accuracy    <       0.00000255 Ry

     iteration # 24     ecut=   150.00 Ry     beta= 0.70
     Davidson diagonalization with overlap
     ethr =  3.64E-09,  avg # of iterations =  2.0

     negative rho (up, down):  1.697E-04 0.000E+00

     total cpu time spent up to now is     2410.6 secs

     total energy              =   -1438.36023527 Ry
     estimated scf accuracy    <       0.00000155 Ry

     iteration # 25     ecut=   150.00 Ry     beta= 0.70
     Davidson diagonalization with overlap
     ethr =  2.21E-09,  avg # of iterations =  9.2

     negative rho (up, down):  1.697E-04 0.000E+00

     total cpu time spent up to now is     2506.9 secs

     total energy              =   -1438.36023574 Ry
     estimated scf accuracy    <       0.00000169 Ry

     iteration # 26     ecut=   150.00 Ry     beta= 0.70
     Davidson diagonalization with overlap
     ethr =  2.21E-09,  avg # of iterations =  1.3

     negative rho (up, down):  1.697E-04 0.000E+00

     total cpu time spent up to now is     2571.6 secs

     total energy              =   -1438.36023558 Ry
     estimated scf accuracy    <       0.00000161 Ry

     iteration # 27     ecut=   150.00 Ry     beta= 0.70
     Davidson diagonalization with overlap
     ethr =  2.21E-09,  avg # of iterations =  3.1

     negative rho (up, down):  1.697E-04 0.000E+00

     total cpu time spent up to now is     2643.4 secs

     total energy              =   -1438.36023562 Ry
     estimated scf accuracy    <       0.00000048 Ry

     iteration # 28     ecut=   150.00 Ry     beta= 0.70
     Davidson diagonalization with overlap
     ethr =  6.90E-10,  avg # of iterations =  9.2

     negative rho (up, down):  1.697E-04 0.000E+00

     total cpu time spent up to now is     2728.5 secs

     total energy              =   -1438.36023567 Ry
     estimated scf accuracy    <       0.00000003 Ry

     iteration # 29     ecut=   150.00 Ry     beta= 0.70
     Davidson diagonalization with overlap
     ethr =  4.74E-11,  avg # of iterations =  8.0

     negative rho (up, down):  1.697E-04 0.000E+00

     total cpu time spent up to now is     2827.8 secs

     total energy              =   -1438.36023568 Ry
     estimated scf accuracy    <       0.00000007 Ry

     iteration # 30     ecut=   150.00 Ry     beta= 0.70
     Davidson diagonalization with overlap
     ethr =  4.74E-11,  avg # of iterations =  2.3

     negative rho (up, down):  1.697E-04 0.000E+00

     total cpu time spent up to now is     2897.2 secs

     total energy              =   -1438.36023568 Ry
     estimated scf accuracy    <       0.00000004 Ry

     iteration # 31     ecut=   150.00 Ry     beta= 0.70
     Davidson diagonalization with overlap
     ethr =  4.74E-11,  avg # of iterations =  2.0

     negative rho (up, down):  1.696E-04 0.000E+00

     total cpu time spent up to now is     2966.5 secs

     total energy              =   -1438.36023568 Ry
     estimated scf accuracy    <       0.00000003 Ry

     iteration # 32     ecut=   150.00 Ry     beta= 0.70
     Davidson diagonalization with overlap
     ethr =  4.16E-11,  avg # of iterations =  6.6

     negative rho (up, down):  1.696E-04 0.000E+00

     total cpu time spent up to now is     3045.9 secs

     total energy              =   -1438.36023568 Ry
     estimated scf accuracy    <       0.00000002 Ry

     iteration # 33     ecut=   150.00 Ry     beta= 0.70
     Davidson diagonalization with overlap
     ethr =  2.27E-11,  avg # of iterations = 12.7

     negative rho (up, down):  1.696E-04 0.000E+00

     total cpu time spent up to now is     3168.9 secs

     total energy              =   -1438.36023569 Ry
     estimated scf accuracy    <       0.00000022 Ry

     iteration # 34     ecut=   150.00 Ry     beta= 0.70
     Davidson diagonalization with overlap
     ethr =  2.27E-11,  avg # of iterations =  2.0

     negative rho (up, down):  1.696E-04 0.000E+00

     total cpu time spent up to now is     3237.2 secs

     total energy              =   -1438.36023568 Ry
     estimated scf accuracy    <       0.00000019 Ry

     iteration # 35     ecut=   150.00 Ry     beta= 0.70
     Davidson diagonalization with overlap
     ethr =  2.27E-11,  avg # of iterations = 10.4

     negative rho (up, down):  1.696E-04 0.000E+00

     total cpu time spent up to now is     3331.1 secs

     total energy              =   -1438.36023568 Ry
     estimated scf accuracy    <       0.00000004 Ry

     iteration # 36     ecut=   150.00 Ry     beta= 0.70
     Davidson diagonalization with overlap
     ethr =  2.27E-11,  avg # of iterations =  3.4

     negative rho (up, down):  1.696E-04 0.000E+00

     total cpu time spent up to now is     3404.4 secs

     total energy              =   -1438.36023568 Ry
     estimated scf accuracy    <       0.00000002 Ry

     iteration # 37     ecut=   150.00 Ry     beta= 0.70
     Davidson diagonalization with overlap
     ethr =  2.27E-11,  avg # of iterations =  2.3

     negative rho (up, down):  1.696E-04 0.000E+00

     total cpu time spent up to now is     3475.5 secs

     total energy              =   -1438.36023568 Ry
     estimated scf accuracy    <       0.00000001 Ry

     iteration # 38     ecut=   150.00 Ry     beta= 0.70
     Davidson diagonalization with overlap
     ethr =  1.52E-11,  avg # of iterations =  9.2

     negative rho (up, down):  1.696E-04 0.000E+00

     total cpu time spent up to now is     3573.4 secs

     total energy              =   -1438.36023568 Ry
     estimated scf accuracy    <       0.00000002 Ry

     iteration # 39     ecut=   150.00 Ry     beta= 0.70
     Davidson diagonalization with overlap
     ethr =  1.52E-11,  avg # of iterations =  1.6

     negative rho (up, down):  1.696E-04 0.000E+00

     total cpu time spent up to now is     3640.0 secs

     total energy              =   -1438.36023568 Ry
     estimated scf accuracy    <       0.00000001 Ry

     iteration # 40     ecut=   150.00 Ry     beta= 0.70
     Davidson diagonalization with overlap
     ethr =  1.52E-11,  avg # of iterations =  1.6

     negative rho (up, down):  1.696E-04 0.000E+00

     total cpu time spent up to now is     3706.1 secs

     total energy              =   -1438.36023568 Ry
     estimated scf accuracy    <          9.7E-09 Ry

     iteration # 41     ecut=   150.00 Ry     beta= 0.70
     Davidson diagonalization with overlap
     ethr =  1.38E-11,  avg # of iterations =  3.1

     negative rho (up, down):  1.696E-04 0.000E+00

     total cpu time spent up to now is     3777.1 secs

     total energy              =   -1438.36023568 Ry
     estimated scf accuracy    <          3.5E-09 Ry

     iteration # 42     ecut=   150.00 Ry     beta= 0.70
     Davidson diagonalization with overlap
     ethr =  5.02E-12,  avg # of iterations =  8.6

     negative rho (up, down):  1.696E-04 0.000E+00

     total cpu time spent up to now is     3861.9 secs

     total energy              =   -1438.36023568 Ry
     estimated scf accuracy    <          5.4E-11 Ry

     iteration # 43     ecut=   150.00 Ry     beta= 0.70
     Davidson diagonalization with overlap
     ethr =  1.00E-13,  avg # of iterations = 10.1

     negative rho (up, down):  1.696E-04 0.000E+00

     total cpu time spent up to now is     3976.9 secs

     total energy              =   -1438.36023568 Ry
     estimated scf accuracy    <          3.4E-10 Ry

     iteration # 44     ecut=   150.00 Ry     beta= 0.70
     Davidson diagonalization with overlap
     ethr =  1.00E-13,  avg # of iterations =  1.6

     negative rho (up, down):  1.696E-04 0.000E+00

     total cpu time spent up to now is     4042.9 secs

     total energy              =   -1438.36023568 Ry
     estimated scf accuracy    <          2.9E-10 Ry

     iteration # 45     ecut=   150.00 Ry     beta= 0.70
     Davidson diagonalization with overlap
     ethr =  1.00E-13,  avg # of iterations =  3.8

     negative rho (up, down):  1.696E-04 0.000E+00

     total cpu time spent up to now is     4116.8 secs

     total energy              =   -1438.36023568 Ry
     estimated scf accuracy    <          1.5E-10 Ry

     iteration # 46     ecut=   150.00 Ry     beta= 0.70
     Davidson diagonalization with overlap
     ethr =  1.00E-13,  avg # of iterations =  1.9

     negative rho (up, down):  1.696E-04 0.000E+00

     total cpu time spent up to now is     4184.1 secs

     total energy              =   -1438.36023568 Ry
     estimated scf accuracy    <          1.3E-10 Ry

     iteration # 47     ecut=   150.00 Ry     beta= 0.70
     Davidson diagonalization with overlap
     ethr =  1.00E-13,  avg # of iterations =  3.8

     negative rho (up, down):  1.696E-04 0.000E+00

     total cpu time spent up to now is     4257.0 secs

     total energy              =   -1438.36023568 Ry
     estimated scf accuracy    <          5.2E-11 Ry

     iteration # 48     ecut=   150.00 Ry     beta= 0.70
     Davidson diagonalization with overlap
     ethr =  1.00E-13,  avg # of iterations =  6.5

     negative rho (up, down):  1.696E-04 0.000E+00

     total cpu time spent up to now is     4335.6 secs

     End of self-consistent calculation

     Number of k-points >= 100: set verbosity='high' to print the bands.

     highest occupied level (ev):    -0.1754

!    total energy              =   -1438.36023568 Ry
     estimated scf accuracy    <          3.3E-13 Ry

     The total energy is the sum of the following terms:
     one-electron contribution =  -14159.39911091 Ry
     hartree contribution      =    7110.89012041 Ry
     xc contribution           =    -153.76693595 Ry
     ewald contribution        =    5763.91569076 Ry

     convergence has been achieved in  48 iterations

     negative rho (up, down):  1.696E-04 0.000E+00

     Forces acting on atoms (cartesian axes, Ry/au):

     atom    1 type  2   force =     0.00007093    0.00018604   -0.00119412
     atom    2 type  1   force =    -0.00002842   -0.00003838   -0.00183452
     atom    3 type  1   force =    -0.00000227   -0.00012417    0.00260023
     atom    4 type  3   force =    -0.00002084   -0.00004343    0.00885667
     atom    5 type  3   force =    -0.00001939    0.00001994   -0.00842826

     Total force =     0.012692     Total SCF correction =     0.000002


     Computing stress (Cartesian axis) and pressure


     negative rho (up, down):  1.696E-04 0.000E+00
          total   stress  (Ry/bohr**3)                   (kbar)     P=       10.05
   0.00007179  -0.00000116   0.00000004           10.56       -0.17        0.01
  -0.00000116   0.00007841  -0.00000029           -0.17       11.53       -0.04
   0.00000004  -0.00000029   0.00005467            0.01       -0.04        8.04


     Writing output data file /scratch/as3359/Mos2_ct_lat/Ta2CO.save/
 
     init_run     :     80.23s CPU     43.19s WALL (       1 calls)
     electrons    :   8462.57s CPU   4292.21s WALL (       1 calls)
     forces       :     22.00s CPU     11.27s WALL (       1 calls)
     stress       :    112.77s CPU     57.52s WALL (       1 calls)

     Called by init_run:
     wfcinit      :     68.50s CPU     35.36s WALL (       1 calls)
     potinit      :      3.03s CPU      1.54s WALL (       1 calls)
     hinit0       :      6.66s CPU      4.88s WALL (       1 calls)

     Called by electrons:
     c_bands      :   7168.36s CPU   3616.88s WALL (      48 calls)
     sum_band     :   1190.67s CPU    612.19s WALL (      48 calls)
     v_of_rho     :     14.13s CPU      7.66s WALL (      49 calls)
     newd         :     83.84s CPU     52.53s WALL (      49 calls)
     mix_rho      :      6.56s CPU      3.48s WALL (      48 calls)

     Called by c_bands:
     init_us_2    :    161.76s CPU     80.96s WALL (   11187 calls)
     cegterg      :   6711.66s CPU   3386.93s WALL (    5424 calls)

     Called by *egterg:
     cdiaghg      :     74.90s CPU     38.32s WALL (   35617 calls)
     h_psi        :   5213.95s CPU   2636.23s WALL (   35730 calls)
     s_psi        :    333.92s CPU    167.16s WALL (   35730 calls)
     g_psi        :     26.76s CPU     13.44s WALL (   30193 calls)

     Called by h_psi:
     h_psi:calbec :    256.20s CPU    128.44s WALL (   35730 calls)
     vloc_psi     :   4563.61s CPU   2310.01s WALL (   35730 calls)
     add_vuspsi   :    350.81s CPU    175.67s WALL (   35730 calls)

     General routines
     calbec       :    329.49s CPU    165.24s WALL (   41719 calls)
     fft          :      8.19s CPU      4.19s WALL (     564 calls)
     ffts         :      0.53s CPU      0.27s WALL (      48 calls)
     fftw         :   4673.61s CPU   2367.84s WALL ( 1212530 calls)
 
     Parallel routines
 
     PWSCF        :      2h24m CPU      1h13m WALL

 
   This run was terminated on:  12: 0: 8  15Apr2022            

=------------------------------------------------------------------------------=
   JOB DONE.
=------------------------------------------------------------------------------=
