
     Program PWSCF v.6.8 starts on 15Apr2022 at 13:16: 0 

     This program is part of the open-source Quantum ESPRESSO suite
     for quantum simulation of materials; please cite
         "P. Giannozzi et al., J. Phys.:Condens. Matter 21 395502 (2009);
         "P. Giannozzi et al., J. Phys.:Condens. Matter 29 465901 (2017);
         "P. Giannozzi et al., J. Chem. Phys. 152 154105 (2020);
          URL http://www.quantum-espresso.org", 
     in publications or presentations arising from this work. More details at
     http://www.quantum-espresso.org/quote

     Parallel version (MPI & OpenMP), running on       4 processor cores
     Number of MPI processes:                 2
     Threads/MPI process:                     2

     MPI processes distributed on     1 nodes
     R & G space division:  proc/nbgrp/npool/nimage =       2
     124992 MiB available memory on the printing compute node when the environment starts
 
     Reading input from Ta2CO.scf.5.575.in
Warning: card  &CELL ignored
Warning: card     CELL_DYNAMICS='BFGS' ignored
Warning: card  / ignored

     Current dimensions of program PWSCF are:
     Max number of different atomic species (ntypx) = 10
     Max number of k-points (npk) =  40000
     Max angular momentum in pseudopotentials (lmaxx) =  4
     Message from routine iosys:
     restart disabled: needed files not found
     file Ta.pbesol-spfn-rrkjus_psl.1.0.0.UPF: wavefunction(s)  5S 5P renormalized

     Subspace diagonalization in iterative solution of the eigenvalue problem:
     a serial algorithm will be used

 
     Parallelization info
     --------------------
     sticks:   dense  smooth     PW     G-vecs:    dense   smooth      PW
     Min         696     696    210               202380   202380   32150
     Max         697     697    211               202415   202415   32165
     Sum        1393    1393    421               404795   404795   64315
 
     Using Slab Decomposition
 


     bravais-lattice index     =            0
     lattice parameter (alat)  =       5.5750  a.u.
     unit-cell volume          =    1630.5362 (a.u.)^3
     number of atoms/cell      =            5
     number of atomic types    =            3
     number of electrons       =        70.00
     number of Kohn-Sham states=           35
     kinetic-energy cutoff     =     150.0000  Ry
     charge density cutoff     =     600.0000  Ry
     scf convergence threshold =      1.0E-12
     mixing beta               =       0.7000
     number of iterations used =            8  plain     mixing
     Exchange-correlation= PBESOL
                           (   1   4  10   8   0   0   0)

     celldm(1)=   5.575000  celldm(2)=   0.000000  celldm(3)=   0.000000
     celldm(4)=   0.000000  celldm(5)=   0.000000  celldm(6)=   0.000000

     crystal axes: (cart. coord. in units of alat)
               a(1) = (   1.043500   0.000814   0.000000 )  
               a(2) = (  -0.521746   0.901379   0.000000 )  
               a(3) = (   0.000000   0.000000  10.000000 )  

     reciprocal axes: (cart. coord. in units 2 pi/alat)
               b(1) = (  0.957881  0.554451  0.000000 )  
               b(2) = ( -0.000865  1.108910  0.000000 )  
               b(3) = (  0.000000  0.000000  0.100000 )  


     PseudoPot. # 1 for Ta read from file:
     /shared/home/as3359/pseudo/Ta.pbesol-spfn-rrkjus_psl.1.0.0.UPF
     MD5 check sum: f099565ffaca9b150a52e9412a28e20b
     Pseudo is Ultrasoft + core correction, Zval = 27.0
     Generated using &quot;atomic&quot; code by A. Dal Corso  v.6.3
     Using radial grid of 1273 points,  8 beta functions with: 
                l(1) =   0
                l(2) =   0
                l(3) =   1
                l(4) =   1
                l(5) =   2
                l(6) =   2
                l(7) =   3
                l(8) =   3
     Q(r) pseudized with 0 coefficients 


     PseudoPot. # 2 for C  read from file:
     /shared/home/as3359/pseudo/C.pbesol-n-rrkjus_psl.1.0.0.UPF
     MD5 check sum: 05995be603a8a7c99da3dc4413f31573
     Pseudo is Ultrasoft + core correction, Zval =  4.0
     Generated using &quot;atomic&quot; code by A. Dal Corso  v.6.3MaX
     Using radial grid of 1073 points,  4 beta functions with: 
                l(1) =   0
                l(2) =   0
                l(3) =   1
                l(4) =   1
     Q(r) pseudized with 0 coefficients 


     PseudoPot. # 3 for O  read from file:
     /shared/home/as3359/pseudo/O.pbesol-n-rrkjus_psl.1.0.0.UPF
     MD5 check sum: dd9bad2534826f832ffc9296591fc5de
     Pseudo is Ultrasoft + core correction, Zval =  6.0
     Generated using &quot;atomic&quot; code by A. Dal Corso  v.6.3MaX
     Using radial grid of 1095 points,  4 beta functions with: 
                l(1) =   0
                l(2) =   0
                l(3) =   1
                l(4) =   1
     Q(r) pseudized with 0 coefficients 


     atomic species   valence    mass     pseudopotential
        Ta            27.00   180.94788     Ta( 1.00)
        C              4.00    12.01070     C ( 1.00)
        O              6.00    15.99940     O ( 1.00)

     No symmetry found



   Cartesian axes

     site n.     atom                  positions (alat units)
         1           C   tau(   1) = (  -0.1377536   0.0179990   0.0193518  )
         2           Ta  tau(   2) = (   0.3841239   0.3191886  -0.4303721  )
         3           Ta  tau(   3) = (  -0.1376121   0.6197216   0.4272316  )
         4           O   tau(   4) = (   0.3845132   0.3204022   0.8049677  )
         5           O   tau(   5) = (  -0.1374316   0.0186104  -0.8211265  )

     number of k points=   113

     Number of k-points >= 100: set verbosity='high' to print them.

     Dense  grid:   404795 G-vectors     FFT dimensions: (  45,  45, 450)

     Estimated max dynamical RAM per process >       3.43 GB

     Estimated total dynamical RAM >       6.86 GB
     Cannot read rho : file not found

     Initial potential from superposition of free atoms

     starting charge   69.99841, renormalised to   70.00000

     negative rho (up, down):  1.222E-04 0.000E+00
     Message from routine qexsd_readschema :
     xml data file /scratch/as3359/Mos2_ct_lat/Ta2CO.save/data-file-schema.xml not fo
     Cannot read wfcs: file not found
     Starting wfcs are   46 randomized atomic wfcs

     total cpu time spent up to now is       45.7 secs

     Self-consistent Calculation

     iteration #  1     ecut=   150.00 Ry     beta= 0.70
     Davidson diagonalization with overlap
     ethr =  1.00E-05,  avg # of iterations =  9.3

     negative rho (up, down):  1.459E-04 0.000E+00

     total cpu time spent up to now is      258.5 secs

     total energy              =   -1437.55473968 Ry
     estimated scf accuracy    <       1.55478931 Ry

     iteration #  2     ecut=   150.00 Ry     beta= 0.70
     Davidson diagonalization with overlap
     ethr =  2.22E-03,  avg # of iterations = 11.5

     negative rho (up, down):  1.506E-04 0.000E+00

     total cpu time spent up to now is      399.3 secs

     total energy              =   -1435.75579547 Ry
     estimated scf accuracy    <      15.73447801 Ry

     iteration #  3     ecut=   150.00 Ry     beta= 0.70
     Davidson diagonalization with overlap
     c_bands:  1 eigenvalues not converged
     c_bands:  1 eigenvalues not converged
     c_bands:  1 eigenvalues not converged
     c_bands:  2 eigenvalues not converged
     c_bands:  2 eigenvalues not converged
     c_bands:  2 eigenvalues not converged
     c_bands:  1 eigenvalues not converged
     c_bands:  3 eigenvalues not converged
     ethr =  2.22E-03,  avg # of iterations = 15.4

     negative rho (up, down):  1.084E-04 0.000E+00

     total cpu time spent up to now is      570.8 secs

     total energy              =   -1434.17879770 Ry
     estimated scf accuracy    <      86.74544188 Ry

     iteration #  4     ecut=   150.00 Ry     beta= 0.70
     Davidson diagonalization with overlap
     ethr =  2.22E-03,  avg # of iterations =  9.7

     negative rho (up, down):  1.057E-04 0.000E+00

     total cpu time spent up to now is      708.5 secs

     total energy              =   -1438.27010012 Ry
     estimated scf accuracy    <       0.99854178 Ry

     iteration #  5     ecut=   150.00 Ry     beta= 0.70
     Davidson diagonalization with overlap
     ethr =  1.43E-03,  avg # of iterations =  2.1

     negative rho (up, down):  1.162E-04 0.000E+00

     total cpu time spent up to now is      785.6 secs

     total energy              =   -1438.25734864 Ry
     estimated scf accuracy    <       0.35926832 Ry

     iteration #  6     ecut=   150.00 Ry     beta= 0.70
     Davidson diagonalization with overlap
     ethr =  5.13E-04,  avg # of iterations =  6.8

     negative rho (up, down):  1.153E-04 0.000E+00

     total cpu time spent up to now is      890.8 secs

     total energy              =   -1438.35733126 Ry
     estimated scf accuracy    <       0.04064862 Ry

     iteration #  7     ecut=   150.00 Ry     beta= 0.70
     Davidson diagonalization with overlap
     ethr =  5.81E-05,  avg # of iterations =  5.9

     negative rho (up, down):  1.185E-04 0.000E+00

     total cpu time spent up to now is      980.5 secs

     total energy              =   -1438.35385628 Ry
     estimated scf accuracy    <       0.03054327 Ry

     iteration #  8     ecut=   150.00 Ry     beta= 0.70
     Davidson diagonalization with overlap
     ethr =  4.36E-05,  avg # of iterations =  6.2

     negative rho (up, down):  1.294E-04 0.000E+00

     total cpu time spent up to now is     1077.1 secs

     total energy              =   -1438.36129609 Ry
     estimated scf accuracy    <       0.00535134 Ry

     iteration #  9     ecut=   150.00 Ry     beta= 0.70
     Davidson diagonalization with overlap
     ethr =  7.64E-06,  avg # of iterations =  7.8

     negative rho (up, down):  1.369E-04 0.000E+00

     total cpu time spent up to now is     1206.5 secs

     total energy              =   -1438.35858819 Ry
     estimated scf accuracy    <       0.03439178 Ry

     iteration # 10     ecut=   150.00 Ry     beta= 0.70
     Davidson diagonalization with overlap
     ethr =  7.64E-06,  avg # of iterations =  5.5

     negative rho (up, down):  1.380E-04 0.000E+00

     total cpu time spent up to now is     1314.9 secs

     total energy              =   -1438.35965110 Ry
     estimated scf accuracy    <       0.00497663 Ry

     iteration # 11     ecut=   150.00 Ry     beta= 0.70
     Davidson diagonalization with overlap
     ethr =  7.11E-06,  avg # of iterations =  2.3

     negative rho (up, down):  1.445E-04 0.000E+00

     total cpu time spent up to now is     1394.1 secs

     total energy              =   -1438.35975914 Ry
     estimated scf accuracy    <       0.00156384 Ry

     iteration # 12     ecut=   150.00 Ry     beta= 0.70
     Davidson diagonalization with overlap
     ethr =  2.23E-06,  avg # of iterations =  6.8

     negative rho (up, down):  1.529E-04 0.000E+00

     total cpu time spent up to now is     1505.9 secs

     total energy              =   -1438.36050558 Ry
     estimated scf accuracy    <       0.00024811 Ry

     iteration # 13     ecut=   150.00 Ry     beta= 0.70
     Davidson diagonalization with overlap
     c_bands:  1 eigenvalues not converged
     ethr =  3.54E-07,  avg # of iterations =  6.3

     negative rho (up, down):  1.550E-04 0.000E+00

     total cpu time spent up to now is     1603.8 secs

     total energy              =   -1438.36045325 Ry
     estimated scf accuracy    <       0.00069727 Ry

     iteration # 14     ecut=   150.00 Ry     beta= 0.70
     Davidson diagonalization with overlap
     ethr =  3.54E-07,  avg # of iterations =  2.0

     negative rho (up, down):  1.599E-04 0.000E+00

     total cpu time spent up to now is     1677.7 secs

     total energy              =   -1438.36039262 Ry
     estimated scf accuracy    <       0.00048231 Ry

     iteration # 15     ecut=   150.00 Ry     beta= 0.70
     Davidson diagonalization with overlap
     ethr =  3.54E-07,  avg # of iterations =  3.4

     negative rho (up, down):  1.638E-04 0.000E+00

     total cpu time spent up to now is     1760.8 secs

     total energy              =   -1438.36037170 Ry
     estimated scf accuracy    <       0.00015793 Ry

     iteration # 16     ecut=   150.00 Ry     beta= 0.70
     Davidson diagonalization with overlap
     c_bands:  1 eigenvalues not converged
     ethr =  2.26E-07,  avg # of iterations =  6.6

     negative rho (up, down):  1.624E-04 0.000E+00

     total cpu time spent up to now is     1868.4 secs

     total energy              =   -1438.36042732 Ry
     estimated scf accuracy    <       0.00002371 Ry

     iteration # 17     ecut=   150.00 Ry     beta= 0.70
     Davidson diagonalization with overlap
     ethr =  3.39E-08,  avg # of iterations =  3.2

     negative rho (up, down):  1.621E-04 0.000E+00

     total cpu time spent up to now is     1949.7 secs

     total energy              =   -1438.36042415 Ry
     estimated scf accuracy    <       0.00002032 Ry

     iteration # 18     ecut=   150.00 Ry     beta= 0.70
     Davidson diagonalization with overlap
     ethr =  2.90E-08,  avg # of iterations =  5.1

     negative rho (up, down):  1.644E-04 0.000E+00

     total cpu time spent up to now is     2041.4 secs

     total energy              =   -1438.36042777 Ry
     estimated scf accuracy    <       0.00000036 Ry

     iteration # 19     ecut=   150.00 Ry     beta= 0.70
     Davidson diagonalization with overlap
     c_bands:  1 eigenvalues not converged
     c_bands:  1 eigenvalues not converged
     c_bands:  1 eigenvalues not converged
     c_bands:  1 eigenvalues not converged
     c_bands:  1 eigenvalues not converged
     c_bands:  1 eigenvalues not converged
     c_bands:  1 eigenvalues not converged
     c_bands:  1 eigenvalues not converged
     c_bands:  1 eigenvalues not converged
     c_bands:  1 eigenvalues not converged
     c_bands:  1 eigenvalues not converged
     c_bands:  1 eigenvalues not converged
     c_bands:  1 eigenvalues not converged
     c_bands:  1 eigenvalues not converged
     c_bands:  1 eigenvalues not converged
     c_bands:  1 eigenvalues not converged
     ethr =  5.20E-10,  avg # of iterations = 16.0

     negative rho (up, down):  1.647E-04 0.000E+00

     total cpu time spent up to now is     2227.5 secs

     total energy              =   -1438.36042880 Ry
     estimated scf accuracy    <       0.00001800 Ry

     iteration # 20     ecut=   150.00 Ry     beta= 0.70
     Davidson diagonalization with overlap
     c_bands:  1 eigenvalues not converged
     ethr =  5.20E-10,  avg # of iterations = 10.7

     negative rho (up, down):  1.652E-04 0.000E+00

     total cpu time spent up to now is     2363.8 secs

     total energy              =   -1438.36042732 Ry
     estimated scf accuracy    <       0.00000432 Ry

     iteration # 21     ecut=   150.00 Ry     beta= 0.70
     Davidson diagonalization with overlap
     c_bands:  1 eigenvalues not converged
     c_bands:  1 eigenvalues not converged
     c_bands:  1 eigenvalues not converged
     c_bands:  1 eigenvalues not converged
     c_bands:  1 eigenvalues not converged
     c_bands:  1 eigenvalues not converged
     ethr =  5.20E-10,  avg # of iterations = 14.7

     negative rho (up, down):  1.653E-04 0.000E+00

     total cpu time spent up to now is     2541.0 secs

     total energy              =   -1438.36042885 Ry
     estimated scf accuracy    <       0.00000532 Ry

     iteration # 22     ecut=   150.00 Ry     beta= 0.70
     Davidson diagonalization with overlap
     c_bands:  1 eigenvalues not converged
     ethr =  5.20E-10,  avg # of iterations =  6.6

     negative rho (up, down):  1.652E-04 0.000E+00

     total cpu time spent up to now is     2649.6 secs

     total energy              =   -1438.36042866 Ry
     estimated scf accuracy    <       0.00000196 Ry

     iteration # 23     ecut=   150.00 Ry     beta= 0.70
     Davidson diagonalization with overlap
     ethr =  5.20E-10,  avg # of iterations =  7.6

     negative rho (up, down):  1.653E-04 0.000E+00

     total cpu time spent up to now is     2755.5 secs

     total energy              =   -1438.36042873 Ry
     estimated scf accuracy    <       0.00000026 Ry

     iteration # 24     ecut=   150.00 Ry     beta= 0.70
     Davidson diagonalization with overlap
     ethr =  3.75E-10,  avg # of iterations =  4.0

     negative rho (up, down):  1.654E-04 0.000E+00

     total cpu time spent up to now is     2840.3 secs

     total energy              =   -1438.36042876 Ry
     estimated scf accuracy    <       0.00000006 Ry

     iteration # 25     ecut=   150.00 Ry     beta= 0.70
     Davidson diagonalization with overlap
     ethr =  8.49E-11,  avg # of iterations =  6.1

     negative rho (up, down):  1.654E-04 0.000E+00

     total cpu time spent up to now is     2942.4 secs

     total energy              =   -1438.36042878 Ry
     estimated scf accuracy    <          3.7E-09 Ry

     iteration # 26     ecut=   150.00 Ry     beta= 0.70
     Davidson diagonalization with overlap
     c_bands:  1 eigenvalues not converged
     c_bands:  1 eigenvalues not converged
     c_bands:  1 eigenvalues not converged
     ethr =  5.34E-12,  avg # of iterations =  9.7

     negative rho (up, down):  1.654E-04 0.000E+00

     total cpu time spent up to now is     3050.5 secs

     total energy              =   -1438.36042879 Ry
     estimated scf accuracy    <       0.00000001 Ry

     iteration # 27     ecut=   150.00 Ry     beta= 0.70
     Davidson diagonalization with overlap
     ethr =  5.34E-12,  avg # of iterations =  1.4

     negative rho (up, down):  1.653E-04 0.000E+00

     total cpu time spent up to now is     3120.4 secs

     total energy              =   -1438.36042879 Ry
     estimated scf accuracy    <       0.00000001 Ry

     iteration # 28     ecut=   150.00 Ry     beta= 0.70
     Davidson diagonalization with overlap
     ethr =  5.34E-12,  avg # of iterations =  3.5

     negative rho (up, down):  1.653E-04 0.000E+00

     total cpu time spent up to now is     3199.4 secs

     total energy              =   -1438.36042879 Ry
     estimated scf accuracy    <          4.8E-09 Ry

     iteration # 29     ecut=   150.00 Ry     beta= 0.70
     Davidson diagonalization with overlap
     ethr =  5.34E-12,  avg # of iterations =  8.0

     negative rho (up, down):  1.653E-04 0.000E+00

     total cpu time spent up to now is     3294.6 secs

     total energy              =   -1438.36042879 Ry
     estimated scf accuracy    <          7.9E-10 Ry

     iteration # 30     ecut=   150.00 Ry     beta= 0.70
     Davidson diagonalization with overlap
     ethr =  1.12E-12,  avg # of iterations =  6.7

     negative rho (up, down):  1.653E-04 0.000E+00

     total cpu time spent up to now is     3399.2 secs

     total energy              =   -1438.36042879 Ry
     estimated scf accuracy    <          1.0E-09 Ry

     iteration # 31     ecut=   150.00 Ry     beta= 0.70
     Davidson diagonalization with overlap
     ethr =  1.12E-12,  avg # of iterations =  1.9

     negative rho (up, down):  1.653E-04 0.000E+00

     total cpu time spent up to now is     3472.5 secs

     total energy              =   -1438.36042879 Ry
     estimated scf accuracy    <          8.4E-10 Ry

     iteration # 32     ecut=   150.00 Ry     beta= 0.70
     Davidson diagonalization with overlap
     ethr =  1.12E-12,  avg # of iterations =  6.0

     negative rho (up, down):  1.653E-04 0.000E+00

     total cpu time spent up to now is     3555.2 secs

     total energy              =   -1438.36042879 Ry
     estimated scf accuracy    <          1.6E-10 Ry

     iteration # 33     ecut=   150.00 Ry     beta= 0.70
     Davidson diagonalization with overlap
     ethr =  2.27E-13,  avg # of iterations =  7.6

     negative rho (up, down):  1.653E-04 0.000E+00

     total cpu time spent up to now is     3647.5 secs

     total energy              =   -1438.36042879 Ry
     estimated scf accuracy    <          1.2E-10 Ry

     iteration # 34     ecut=   150.00 Ry     beta= 0.70
     Davidson diagonalization with overlap
     ethr =  1.67E-13,  avg # of iterations =  1.6

     negative rho (up, down):  1.653E-04 0.000E+00

     total cpu time spent up to now is     3718.8 secs

     total energy              =   -1438.36042879 Ry
     estimated scf accuracy    <          8.6E-11 Ry

     iteration # 35     ecut=   150.00 Ry     beta= 0.70
     Davidson diagonalization with overlap
     ethr =  1.22E-13,  avg # of iterations =  2.2

     negative rho (up, down):  1.653E-04 0.000E+00

     total cpu time spent up to now is     3794.5 secs

     total energy              =   -1438.36042879 Ry
     estimated scf accuracy    <          5.6E-11 Ry

     iteration # 36     ecut=   150.00 Ry     beta= 0.70
     Davidson diagonalization with overlap
     ethr =  1.00E-13,  avg # of iterations =  1.9

     negative rho (up, down):  1.653E-04 0.000E+00

     total cpu time spent up to now is     3867.1 secs

     total energy              =   -1438.36042879 Ry
     estimated scf accuracy    <          4.2E-11 Ry

     iteration # 37     ecut=   150.00 Ry     beta= 0.70
     Davidson diagonalization with overlap
     ethr =  1.00E-13,  avg # of iterations =  2.4

     negative rho (up, down):  1.653E-04 0.000E+00

     total cpu time spent up to now is     3944.1 secs

     total energy              =   -1438.36042879 Ry
     estimated scf accuracy    <          1.6E-11 Ry

     iteration # 38     ecut=   150.00 Ry     beta= 0.70
     Davidson diagonalization with overlap
     ethr =  1.00E-13,  avg # of iterations =  3.6

     negative rho (up, down):  1.653E-04 0.000E+00

     total cpu time spent up to now is     4023.0 secs

     End of self-consistent calculation

     Number of k-points >= 100: set verbosity='high' to print the bands.

     highest occupied level (ev):    -0.3609

!    total energy              =   -1438.36042879 Ry
     estimated scf accuracy    <          6.7E-13 Ry

     The total energy is the sum of the following terms:
     one-electron contribution =  -14055.14582165 Ry
     hartree contribution      =    7058.19962874 Ry
     xc contribution           =    -153.63561551 Ry
     ewald contribution        =    5712.22137964 Ry

     convergence has been achieved in  38 iterations

     negative rho (up, down):  1.653E-04 0.000E+00

     Forces acting on atoms (cartesian axes, Ry/au):

     atom    1 type  2   force =     0.00006277    0.00016121    0.00121250
     atom    2 type  1   force =     0.00000374    0.00004542    0.00163004
     atom    3 type  1   force =    -0.00001482   -0.00013001   -0.00241185
     atom    4 type  3   force =    -0.00002246   -0.00006015   -0.00857284
     atom    5 type  3   force =    -0.00002924   -0.00001647    0.00814216

     Total force =     0.012239     Total SCF correction =     0.000008


     Computing stress (Cartesian axis) and pressure


     negative rho (up, down):  1.653E-04 0.000E+00
          total   stress  (Ry/bohr**3)                   (kbar)     P=       -8.51
  -0.00006347  -0.00000113  -0.00000000           -9.34       -0.17       -0.00
  -0.00000113  -0.00005706  -0.00000036           -0.17       -8.39       -0.05
  -0.00000000  -0.00000036  -0.00005305           -0.00       -0.05       -7.80


     Writing output data file /scratch/as3359/Mos2_ct_lat/Ta2CO.save/
 
     init_run     :     84.47s CPU     45.42s WALL (       1 calls)
     electrons    :   7846.86s CPU   3977.43s WALL (       1 calls)
     forces       :     22.82s CPU     11.67s WALL (       1 calls)
     stress       :    118.64s CPU     60.56s WALL (       1 calls)

     Called by init_run:
     wfcinit      :     72.43s CPU     37.40s WALL (       1 calls)
     potinit      :      3.14s CPU      1.59s WALL (       1 calls)
     hinit0       :      6.80s CPU      4.98s WALL (       1 calls)

     Called by electrons:
     c_bands      :   6758.22s CPU   3409.88s WALL (      38 calls)
     sum_band     :   1004.95s CPU    516.39s WALL (      38 calls)
     v_of_rho     :     11.76s CPU      6.39s WALL (      39 calls)
     newd         :     67.97s CPU     42.66s WALL (      39 calls)
     mix_rho      :      5.24s CPU      2.85s WALL (      38 calls)

     Called by c_bands:
     init_us_2    :    137.30s CPU     68.71s WALL (    8927 calls)
     cegterg      :   6360.92s CPU   3209.62s WALL (    4294 calls)

     Called by *egterg:
     cdiaghg      :     67.96s CPU     34.77s WALL (   31177 calls)
     h_psi        :   4946.55s CPU   2501.00s WALL (   31290 calls)
     s_psi        :    301.81s CPU    151.03s WALL (   31290 calls)
     g_psi        :     31.14s CPU     15.63s WALL (   26883 calls)

     Called by h_psi:
     h_psi:calbec :    235.86s CPU    118.11s WALL (   31290 calls)
     vloc_psi     :   4352.74s CPU   2203.35s WALL (   31290 calls)
     add_vuspsi   :    319.21s CPU    159.76s WALL (   31290 calls)

     General routines
     calbec       :    295.91s CPU    148.20s WALL (   36149 calls)
     fft          :     12.18s CPU      6.21s WALL (     454 calls)
     ffts         :      0.45s CPU      0.23s WALL (      38 calls)
     fftw         :   4380.91s CPU   2219.63s WALL ( 1057582 calls)
 
     Parallel routines
 
     PWSCF        :      2h14m CPU      1h 8m WALL

 
   This run was terminated on:  14:24:23  15Apr2022            

=------------------------------------------------------------------------------=
   JOB DONE.
=------------------------------------------------------------------------------=
