
     Program PWSCF v.6.8 starts on 15Apr2022 at 12: 0:10 

     This program is part of the open-source Quantum ESPRESSO suite
     for quantum simulation of materials; please cite
         "P. Giannozzi et al., J. Phys.:Condens. Matter 21 395502 (2009);
         "P. Giannozzi et al., J. Phys.:Condens. Matter 29 465901 (2017);
         "P. Giannozzi et al., J. Chem. Phys. 152 154105 (2020);
          URL http://www.quantum-espresso.org", 
     in publications or presentations arising from this work. More details at
     http://www.quantum-espresso.org/quote

     Parallel version (MPI & OpenMP), running on       4 processor cores
     Number of MPI processes:                 2
     Threads/MPI process:                     2

     MPI processes distributed on     1 nodes
     R & G space division:  proc/nbgrp/npool/nimage =       2
     124996 MiB available memory on the printing compute node when the environment starts
 
     Reading input from Ta2CO.scf.5.550.in
Warning: card  &CELL ignored
Warning: card     CELL_DYNAMICS='BFGS' ignored
Warning: card  / ignored

     Current dimensions of program PWSCF are:
     Max number of different atomic species (ntypx) = 10
     Max number of k-points (npk) =  40000
     Max angular momentum in pseudopotentials (lmaxx) =  4
     Message from routine iosys:
     restart disabled: needed files not found
     file Ta.pbesol-spfn-rrkjus_psl.1.0.0.UPF: wavefunction(s)  5S 5P renormalized

     Subspace diagonalization in iterative solution of the eigenvalue problem:
     a serial algorithm will be used

 
     Parallelization info
     --------------------
     sticks:   dense  smooth     PW     G-vecs:    dense   smooth      PW
     Min         694     694    206               199738   199738   31647
     Max         695     695    207               199755   199755   31648
     Sum        1389    1389    413               399493   399493   63295
 
     Using Slab Decomposition
 


     bravais-lattice index     =            0
     lattice parameter (alat)  =       5.5500  a.u.
     unit-cell volume          =    1608.6989 (a.u.)^3
     number of atoms/cell      =            5
     number of atomic types    =            3
     number of electrons       =        70.00
     number of Kohn-Sham states=           35
     kinetic-energy cutoff     =     150.0000  Ry
     charge density cutoff     =     600.0000  Ry
     scf convergence threshold =      1.0E-12
     mixing beta               =       0.7000
     number of iterations used =            8  plain     mixing
     Exchange-correlation= PBESOL
                           (   1   4  10   8   0   0   0)

     celldm(1)=   5.550000  celldm(2)=   0.000000  celldm(3)=   0.000000
     celldm(4)=   0.000000  celldm(5)=   0.000000  celldm(6)=   0.000000

     crystal axes: (cart. coord. in units of alat)
               a(1) = (   1.043500   0.000814   0.000000 )  
               a(2) = (  -0.521746   0.901379   0.000000 )  
               a(3) = (   0.000000   0.000000  10.000000 )  

     reciprocal axes: (cart. coord. in units 2 pi/alat)
               b(1) = (  0.957881  0.554451  0.000000 )  
               b(2) = ( -0.000865  1.108910  0.000000 )  
               b(3) = (  0.000000  0.000000  0.100000 )  


     PseudoPot. # 1 for Ta read from file:
     /shared/home/as3359/pseudo/Ta.pbesol-spfn-rrkjus_psl.1.0.0.UPF
     MD5 check sum: f099565ffaca9b150a52e9412a28e20b
     Pseudo is Ultrasoft + core correction, Zval = 27.0
     Generated using &quot;atomic&quot; code by A. Dal Corso  v.6.3
     Using radial grid of 1273 points,  8 beta functions with: 
                l(1) =   0
                l(2) =   0
                l(3) =   1
                l(4) =   1
                l(5) =   2
                l(6) =   2
                l(7) =   3
                l(8) =   3
     Q(r) pseudized with 0 coefficients 


     PseudoPot. # 2 for C  read from file:
     /shared/home/as3359/pseudo/C.pbesol-n-rrkjus_psl.1.0.0.UPF
     MD5 check sum: 05995be603a8a7c99da3dc4413f31573
     Pseudo is Ultrasoft + core correction, Zval =  4.0
     Generated using &quot;atomic&quot; code by A. Dal Corso  v.6.3MaX
     Using radial grid of 1073 points,  4 beta functions with: 
                l(1) =   0
                l(2) =   0
                l(3) =   1
                l(4) =   1
     Q(r) pseudized with 0 coefficients 


     PseudoPot. # 3 for O  read from file:
     /shared/home/as3359/pseudo/O.pbesol-n-rrkjus_psl.1.0.0.UPF
     MD5 check sum: dd9bad2534826f832ffc9296591fc5de
     Pseudo is Ultrasoft + core correction, Zval =  6.0
     Generated using &quot;atomic&quot; code by A. Dal Corso  v.6.3MaX
     Using radial grid of 1095 points,  4 beta functions with: 
                l(1) =   0
                l(2) =   0
                l(3) =   1
                l(4) =   1
     Q(r) pseudized with 0 coefficients 


     atomic species   valence    mass     pseudopotential
        Ta            27.00   180.94788     Ta( 1.00)
        C              4.00    12.01070     C ( 1.00)
        O              6.00    15.99940     O ( 1.00)

     No symmetry found



   Cartesian axes

     site n.     atom                  positions (alat units)
         1           C   tau(   1) = (  -0.1377536   0.0179990   0.0193518  )
         2           Ta  tau(   2) = (   0.3841239   0.3191886  -0.4303721  )
         3           Ta  tau(   3) = (  -0.1376121   0.6197216   0.4272316  )
         4           O   tau(   4) = (   0.3845132   0.3204022   0.8049677  )
         5           O   tau(   5) = (  -0.1374316   0.0186104  -0.8211265  )

     number of k points=   113

     Number of k-points >= 100: set verbosity='high' to print them.

     Dense  grid:   399493 G-vectors     FFT dimensions: (  45,  45, 450)

     Estimated max dynamical RAM per process >       3.39 GB

     Estimated total dynamical RAM >       6.77 GB
     Cannot read rho : file not found

     Initial potential from superposition of free atoms

     starting charge   69.99841, renormalised to   70.00000

     negative rho (up, down):  1.225E-04 0.000E+00
     Message from routine qexsd_readschema :
     xml data file /scratch/as3359/Mos2_ct_lat/Ta2CO.save/data-file-schema.xml not fo
     Cannot read wfcs: file not found
     Starting wfcs are   46 randomized atomic wfcs

     total cpu time spent up to now is       45.9 secs

     Self-consistent Calculation

     iteration #  1     ecut=   150.00 Ry     beta= 0.70
     Davidson diagonalization with overlap
     ethr =  1.00E-05,  avg # of iterations =  9.1

     negative rho (up, down):  1.457E-04 0.000E+00

     total cpu time spent up to now is      261.0 secs

     total energy              =   -1437.56363657 Ry
     estimated scf accuracy    <       1.54571363 Ry

     iteration #  2     ecut=   150.00 Ry     beta= 0.70
     Davidson diagonalization with overlap
     ethr =  2.21E-03,  avg # of iterations = 11.3

     negative rho (up, down):  1.501E-04 0.000E+00

     total cpu time spent up to now is      402.3 secs

     total energy              =   -1435.80746454 Ry
     estimated scf accuracy    <      15.16824468 Ry

     iteration #  3     ecut=   150.00 Ry     beta= 0.70
     Davidson diagonalization with overlap
     c_bands:  1 eigenvalues not converged
     c_bands:  1 eigenvalues not converged
     c_bands:  2 eigenvalues not converged
     ethr =  2.21E-03,  avg # of iterations = 15.0

     negative rho (up, down):  1.111E-04 0.000E+00

     total cpu time spent up to now is      572.7 secs

     total energy              =   -1434.30445929 Ry
     estimated scf accuracy    <      82.51805559 Ry

     iteration #  4     ecut=   150.00 Ry     beta= 0.70
     Davidson diagonalization with overlap
     ethr =  2.21E-03,  avg # of iterations =  9.6

     negative rho (up, down):  1.087E-04 0.000E+00

     total cpu time spent up to now is      711.3 secs

     total energy              =   -1438.27526098 Ry
     estimated scf accuracy    <       0.94774319 Ry

     iteration #  5     ecut=   150.00 Ry     beta= 0.70
     Davidson diagonalization with overlap
     ethr =  1.35E-03,  avg # of iterations =  2.1

     negative rho (up, down):  1.180E-04 0.000E+00

     total cpu time spent up to now is      788.6 secs

     total energy              =   -1438.26121115 Ry
     estimated scf accuracy    <       0.34558228 Ry

     iteration #  6     ecut=   150.00 Ry     beta= 0.70
     Davidson diagonalization with overlap
     ethr =  4.94E-04,  avg # of iterations =  6.6

     negative rho (up, down):  1.173E-04 0.000E+00

     total cpu time spent up to now is      894.8 secs

     total energy              =   -1438.35797951 Ry
     estimated scf accuracy    <       0.04139931 Ry

     iteration #  7     ecut=   150.00 Ry     beta= 0.70
     Davidson diagonalization with overlap
     c_bands:  1 eigenvalues not converged
     ethr =  5.91E-05,  avg # of iterations =  5.9

     negative rho (up, down):  1.215E-04 0.000E+00

     total cpu time spent up to now is      983.7 secs

     total energy              =   -1438.35442399 Ry
     estimated scf accuracy    <       0.02947716 Ry

     iteration #  8     ecut=   150.00 Ry     beta= 0.70
     Davidson diagonalization with overlap
     ethr =  4.21E-05,  avg # of iterations =  6.2

     negative rho (up, down):  1.329E-04 0.000E+00

     total cpu time spent up to now is     1082.1 secs

     total energy              =   -1438.36163439 Ry
     estimated scf accuracy    <       0.00494533 Ry

     iteration #  9     ecut=   150.00 Ry     beta= 0.70
     Davidson diagonalization with overlap
     ethr =  7.06E-06,  avg # of iterations =  8.0

     negative rho (up, down):  1.404E-04 0.000E+00

     total cpu time spent up to now is     1212.7 secs

     total energy              =   -1438.35978765 Ry
     estimated scf accuracy    <       0.02820982 Ry

     iteration # 10     ecut=   150.00 Ry     beta= 0.70
     Davidson diagonalization with overlap
     ethr =  7.06E-06,  avg # of iterations =  5.8

     negative rho (up, down):  1.416E-04 0.000E+00

     total cpu time spent up to now is     1319.0 secs

     total energy              =   -1438.36025605 Ry
     estimated scf accuracy    <       0.00484802 Ry

     iteration # 11     ecut=   150.00 Ry     beta= 0.70
     Davidson diagonalization with overlap
     ethr =  6.93E-06,  avg # of iterations =  2.5

     negative rho (up, down):  1.475E-04 0.000E+00

     total cpu time spent up to now is     1396.9 secs

     total energy              =   -1438.36034781 Ry
     estimated scf accuracy    <       0.00159245 Ry

     iteration # 12     ecut=   150.00 Ry     beta= 0.70
     Davidson diagonalization with overlap
     ethr =  2.27E-06,  avg # of iterations =  6.7

     negative rho (up, down):  1.554E-04 0.000E+00

     total cpu time spent up to now is     1506.2 secs

     total energy              =   -1438.36108874 Ry
     estimated scf accuracy    <       0.00020319 Ry

     iteration # 13     ecut=   150.00 Ry     beta= 0.70
     Davidson diagonalization with overlap
     ethr =  2.90E-07,  avg # of iterations =  7.1

     negative rho (up, down):  1.574E-04 0.000E+00

     total cpu time spent up to now is     1607.3 secs

     total energy              =   -1438.36103068 Ry
     estimated scf accuracy    <       0.00067795 Ry

     iteration # 14     ecut=   150.00 Ry     beta= 0.70
     Davidson diagonalization with overlap
     ethr =  2.90E-07,  avg # of iterations =  2.0

     negative rho (up, down):  1.616E-04 0.000E+00

     total cpu time spent up to now is     1681.7 secs

     total energy              =   -1438.36097225 Ry
     estimated scf accuracy    <       0.00045005 Ry

     iteration # 15     ecut=   150.00 Ry     beta= 0.70
     Davidson diagonalization with overlap
     ethr =  2.90E-07,  avg # of iterations =  4.9

     negative rho (up, down):  1.640E-04 0.000E+00

     total cpu time spent up to now is     1770.9 secs

     total energy              =   -1438.36098697 Ry
     estimated scf accuracy    <       0.00009194 Ry

     iteration # 16     ecut=   150.00 Ry     beta= 0.70
     Davidson diagonalization with overlap
     ethr =  1.31E-07,  avg # of iterations =  5.4

     negative rho (up, down):  1.631E-04 0.000E+00

     total cpu time spent up to now is     1868.7 secs

     total energy              =   -1438.36101465 Ry
     estimated scf accuracy    <       0.00000313 Ry

     iteration # 17     ecut=   150.00 Ry     beta= 0.70
     Davidson diagonalization with overlap
     c_bands:  1 eigenvalues not converged
     c_bands:  1 eigenvalues not converged
     c_bands:  1 eigenvalues not converged
     ethr =  4.47E-09,  avg # of iterations =  8.5

     negative rho (up, down):  1.643E-04 0.000E+00

     total cpu time spent up to now is     1985.5 secs

     total energy              =   -1438.36101579 Ry
     estimated scf accuracy    <       0.00000418 Ry

     iteration # 18     ecut=   150.00 Ry     beta= 0.70
     Davidson diagonalization with overlap
     ethr =  4.47E-09,  avg # of iterations =  7.4

     negative rho (up, down):  1.652E-04 0.000E+00

     total cpu time spent up to now is     2102.8 secs

     total energy              =   -1438.36101690 Ry
     estimated scf accuracy    <       0.00000427 Ry

     iteration # 19     ecut=   150.00 Ry     beta= 0.70
     Davidson diagonalization with overlap
     ethr =  4.47E-09,  avg # of iterations =  2.0

     negative rho (up, down):  1.656E-04 0.000E+00

     total cpu time spent up to now is     2178.6 secs

     total energy              =   -1438.36101688 Ry
     estimated scf accuracy    <       0.00000178 Ry

     iteration # 20     ecut=   150.00 Ry     beta= 0.70
     Davidson diagonalization with overlap
     ethr =  2.54E-09,  avg # of iterations =  3.5

     negative rho (up, down):  1.655E-04 0.000E+00

     total cpu time spent up to now is     2260.2 secs

     total energy              =   -1438.36101689 Ry
     estimated scf accuracy    <       0.00000063 Ry

     iteration # 21     ecut=   150.00 Ry     beta= 0.70
     Davidson diagonalization with overlap
     ethr =  8.95E-10,  avg # of iterations =  6.8

     negative rho (up, down):  1.655E-04 0.000E+00

     total cpu time spent up to now is     2373.1 secs

     total energy              =   -1438.36101729 Ry
     estimated scf accuracy    <       0.00000030 Ry

     iteration # 22     ecut=   150.00 Ry     beta= 0.70
     Davidson diagonalization with overlap
     c_bands:  1 eigenvalues not converged
     ethr =  4.32E-10,  avg # of iterations =  1.9

     negative rho (up, down):  1.655E-04 0.000E+00

     total cpu time spent up to now is     2444.8 secs

     total energy              =   -1438.36101727 Ry
     estimated scf accuracy    <       0.00000032 Ry

     iteration # 23     ecut=   150.00 Ry     beta= 0.70
     Davidson diagonalization with overlap
     ethr =  4.32E-10,  avg # of iterations =  1.5

     negative rho (up, down):  1.656E-04 0.000E+00

     total cpu time spent up to now is     2514.4 secs

     total energy              =   -1438.36101723 Ry
     estimated scf accuracy    <       0.00000026 Ry

     iteration # 24     ecut=   150.00 Ry     beta= 0.70
     Davidson diagonalization with overlap
     ethr =  3.68E-10,  avg # of iterations =  2.1

     negative rho (up, down):  1.656E-04 0.000E+00

     total cpu time spent up to now is     2588.3 secs

     total energy              =   -1438.36101720 Ry
     estimated scf accuracy    <       0.00000012 Ry

     iteration # 25     ecut=   150.00 Ry     beta= 0.70
     Davidson diagonalization with overlap
     ethr =  1.78E-10,  avg # of iterations =  6.4

     negative rho (up, down):  1.655E-04 0.000E+00

     total cpu time spent up to now is     2688.9 secs

     total energy              =   -1438.36101723 Ry
     estimated scf accuracy    <       0.00000002 Ry

     iteration # 26     ecut=   150.00 Ry     beta= 0.70
     Davidson diagonalization with overlap
     c_bands:  1 eigenvalues not converged
     ethr =  3.23E-11,  avg # of iterations =  3.6

     negative rho (up, down):  1.655E-04 0.000E+00

     total cpu time spent up to now is     2771.0 secs

     total energy              =   -1438.36101723 Ry
     estimated scf accuracy    <       0.00000001 Ry

     iteration # 27     ecut=   150.00 Ry     beta= 0.70
     Davidson diagonalization with overlap
     ethr =  1.58E-11,  avg # of iterations =  7.9

     negative rho (up, down):  1.655E-04 0.000E+00

     total cpu time spent up to now is     2877.4 secs

     total energy              =   -1438.36101724 Ry
     estimated scf accuracy    <          7.5E-09 Ry

     iteration # 28     ecut=   150.00 Ry     beta= 0.70
     Davidson diagonalization with overlap
     ethr =  1.07E-11,  avg # of iterations =  2.0

     negative rho (up, down):  1.655E-04 0.000E+00

     total cpu time spent up to now is     2951.8 secs

     total energy              =   -1438.36101724 Ry
     estimated scf accuracy    <          3.2E-09 Ry

     iteration # 29     ecut=   150.00 Ry     beta= 0.70
     Davidson diagonalization with overlap
     c_bands:  1 eigenvalues not converged
     ethr =  4.57E-12,  avg # of iterations =  7.0

     negative rho (up, down):  1.655E-04 0.000E+00

     total cpu time spent up to now is     3060.6 secs

     total energy              =   -1438.36101724 Ry
     estimated scf accuracy    <          1.5E-09 Ry

     iteration # 30     ecut=   150.00 Ry     beta= 0.70
     Davidson diagonalization with overlap
     c_bands:  1 eigenvalues not converged
     ethr =  2.21E-12,  avg # of iterations =  1.9

     negative rho (up, down):  1.656E-04 0.000E+00

     total cpu time spent up to now is     3132.1 secs

     total energy              =   -1438.36101724 Ry
     estimated scf accuracy    <          9.8E-10 Ry

     iteration # 31     ecut=   150.00 Ry     beta= 0.70
     Davidson diagonalization with overlap
     c_bands:  1 eigenvalues not converged
     ethr =  1.40E-12,  avg # of iterations =  7.4

     negative rho (up, down):  1.656E-04 0.000E+00

     total cpu time spent up to now is     3249.0 secs

     total energy              =   -1438.36101724 Ry
     estimated scf accuracy    <          1.1E-09 Ry

     iteration # 32     ecut=   150.00 Ry     beta= 0.70
     Davidson diagonalization with overlap
     ethr =  1.40E-12,  avg # of iterations =  1.2

     negative rho (up, down):  1.656E-04 0.000E+00

     total cpu time spent up to now is     3317.2 secs

     total energy              =   -1438.36101724 Ry
     estimated scf accuracy    <          8.8E-10 Ry

     iteration # 33     ecut=   150.00 Ry     beta= 0.70
     Davidson diagonalization with overlap
     ethr =  1.25E-12,  avg # of iterations =  1.2

     negative rho (up, down):  1.656E-04 0.000E+00

     total cpu time spent up to now is     3386.0 secs

     total energy              =   -1438.36101724 Ry
     estimated scf accuracy    <          6.0E-10 Ry

     iteration # 34     ecut=   150.00 Ry     beta= 0.70
     Davidson diagonalization with overlap
     c_bands:  1 eigenvalues not converged
     ethr =  8.55E-13,  avg # of iterations =  2.2

     negative rho (up, down):  1.656E-04 0.000E+00

     total cpu time spent up to now is     3461.8 secs

     total energy              =   -1438.36101724 Ry
     estimated scf accuracy    <          2.5E-10 Ry

     iteration # 35     ecut=   150.00 Ry     beta= 0.70
     Davidson diagonalization with overlap
     ethr =  3.64E-13,  avg # of iterations =  3.5

     negative rho (up, down):  1.656E-04 0.000E+00

     total cpu time spent up to now is     3542.5 secs

     total energy              =   -1438.36101724 Ry
     estimated scf accuracy    <          8.4E-11 Ry

     iteration # 36     ecut=   150.00 Ry     beta= 0.70
     Davidson diagonalization with overlap
     ethr =  1.19E-13,  avg # of iterations =  6.5

     negative rho (up, down):  1.656E-04 0.000E+00

     total cpu time spent up to now is     3647.4 secs

     total energy              =   -1438.36101724 Ry
     estimated scf accuracy    <          5.2E-12 Ry

     iteration # 37     ecut=   150.00 Ry     beta= 0.70
     Davidson diagonalization with overlap
     ethr =  1.00E-13,  avg # of iterations =  1.1

     negative rho (up, down):  1.656E-04 0.000E+00

     total cpu time spent up to now is     3715.3 secs

     total energy              =   -1438.36101724 Ry
     estimated scf accuracy    <          4.4E-12 Ry

     iteration # 38     ecut=   150.00 Ry     beta= 0.70
     Davidson diagonalization with overlap
     ethr =  1.00E-13,  avg # of iterations =  1.1

     negative rho (up, down):  1.656E-04 0.000E+00

     total cpu time spent up to now is     3783.0 secs

     total energy              =   -1438.36101724 Ry
     estimated scf accuracy    <          2.7E-12 Ry

     iteration # 39     ecut=   150.00 Ry     beta= 0.70
     Davidson diagonalization with overlap
     ethr =  1.00E-13,  avg # of iterations =  1.1

     negative rho (up, down):  1.656E-04 0.000E+00

     total cpu time spent up to now is     3851.2 secs

     total energy              =   -1438.36101724 Ry
     estimated scf accuracy    <          1.8E-12 Ry

     iteration # 40     ecut=   150.00 Ry     beta= 0.70
     Davidson diagonalization with overlap
     ethr =  1.00E-13,  avg # of iterations =  1.3

     negative rho (up, down):  1.656E-04 0.000E+00

     total cpu time spent up to now is     3920.1 secs

     total energy              =   -1438.36101724 Ry
     estimated scf accuracy    <          5.0E-12 Ry

     iteration # 41     ecut=   150.00 Ry     beta= 0.70
     Davidson diagonalization with overlap
     ethr =  1.00E-13,  avg # of iterations =  1.1

     negative rho (up, down):  1.656E-04 0.000E+00

     total cpu time spent up to now is     3988.0 secs

     total energy              =   -1438.36101724 Ry
     estimated scf accuracy    <          8.3E-12 Ry

     iteration # 42     ecut=   150.00 Ry     beta= 0.70
     Davidson diagonalization with overlap
     ethr =  1.00E-13,  avg # of iterations =  1.0

     negative rho (up, down):  1.656E-04 0.000E+00

     total cpu time spent up to now is     4055.7 secs

     total energy              =   -1438.36101724 Ry
     estimated scf accuracy    <          5.8E-12 Ry

     iteration # 43     ecut=   150.00 Ry     beta= 0.70
     Davidson diagonalization with overlap
     ethr =  1.00E-13,  avg # of iterations =  1.0

     negative rho (up, down):  1.656E-04 0.000E+00

     total cpu time spent up to now is     4123.2 secs

     total energy              =   -1438.36101724 Ry
     estimated scf accuracy    <          5.8E-12 Ry

     iteration # 44     ecut=   150.00 Ry     beta= 0.70
     Davidson diagonalization with overlap
     ethr =  1.00E-13,  avg # of iterations =  1.0

     negative rho (up, down):  1.656E-04 0.000E+00

     total cpu time spent up to now is     4190.7 secs

     total energy              =   -1438.36101724 Ry
     estimated scf accuracy    <          4.7E-12 Ry

     iteration # 45     ecut=   150.00 Ry     beta= 0.70
     Davidson diagonalization with overlap
     ethr =  1.00E-13,  avg # of iterations =  2.0

     negative rho (up, down):  1.656E-04 0.000E+00

     total cpu time spent up to now is     4264.7 secs

     total energy              =   -1438.36101724 Ry
     estimated scf accuracy    <          1.5E-12 Ry

     iteration # 46     ecut=   150.00 Ry     beta= 0.70
     Davidson diagonalization with overlap
     ethr =  1.00E-13,  avg # of iterations =  1.7

     negative rho (up, down):  1.656E-04 0.000E+00

     total cpu time spent up to now is     4335.3 secs

     total energy              =   -1438.36101724 Ry
     estimated scf accuracy    <          1.8E-12 Ry

     iteration # 47     ecut=   150.00 Ry     beta= 0.70
     Davidson diagonalization with overlap
     ethr =  1.00E-13,  avg # of iterations =  1.0

     negative rho (up, down):  1.656E-04 0.000E+00

     total cpu time spent up to now is     4402.9 secs

     total energy              =   -1438.36101724 Ry
     estimated scf accuracy    <          1.0E-12 Ry

     iteration # 48     ecut=   150.00 Ry     beta= 0.70
     Davidson diagonalization with overlap
     ethr =  1.00E-13,  avg # of iterations =  1.0

     negative rho (up, down):  1.656E-04 0.000E+00

     total cpu time spent up to now is     4470.2 secs

     End of self-consistent calculation

     Number of k-points >= 100: set verbosity='high' to print the bands.

     highest occupied level (ev):    -0.2689

!    total energy              =   -1438.36101724 Ry
     estimated scf accuracy    <          8.5E-13 Ry

     The total energy is the sum of the following terms:
     one-electron contribution =  -14107.03765633 Ry
     hartree contribution      =    7084.42523348 Ry
     xc contribution           =    -153.70070096 Ry
     ewald contribution        =    5737.95210657 Ry

     convergence has been achieved in  48 iterations

     negative rho (up, down):  1.656E-04 0.000E+00

     Forces acting on atoms (cartesian axes, Ry/au):

     atom    1 type  2   force =     0.00006699    0.00017320    0.00003428
     atom    2 type  1   force =    -0.00001226    0.00000416   -0.00006989
     atom    3 type  1   force =    -0.00000927   -0.00012697    0.00004497
     atom    4 type  3   force =    -0.00002094   -0.00005164   -0.00005375
     atom    5 type  3   force =    -0.00002452    0.00000125    0.00004438

     Total force =     0.000260     Total SCF correction =     0.000011


     Computing stress (Cartesian axis) and pressure


     negative rho (up, down):  1.656E-04 0.000E+00
          total   stress  (Ry/bohr**3)                   (kbar)     P=        0.48
   0.00000207  -0.00000115   0.00000002            0.30       -0.17        0.00
  -0.00000115   0.00000858  -0.00000033           -0.17        1.26       -0.05
   0.00000002  -0.00000033  -0.00000087            0.00       -0.05       -0.13


     Writing output data file /scratch/as3359/Mos2_ct_lat/Ta2CO.save/
 
     init_run     :     84.99s CPU     45.65s WALL (       1 calls)
     electrons    :   8720.76s CPU   4424.43s WALL (       1 calls)
     forces       :     22.54s CPU     11.54s WALL (       1 calls)
     stress       :    115.35s CPU     58.81s WALL (       1 calls)

     Called by init_run:
     wfcinit      :     73.01s CPU     37.68s WALL (       1 calls)
     potinit      :      3.12s CPU      1.58s WALL (       1 calls)
     hinit0       :      6.78s CPU      4.95s WALL (       1 calls)

     Called by electrons:
     c_bands      :   7350.50s CPU   3710.09s WALL (      48 calls)
     sum_band     :   1265.14s CPU    650.08s WALL (      48 calls)
     v_of_rho     :     14.56s CPU      7.94s WALL (      49 calls)
     newd         :     84.79s CPU     53.20s WALL (      49 calls)
     mix_rho      :      6.59s CPU      3.55s WALL (      48 calls)

     Called by c_bands:
     init_us_2    :    165.84s CPU     82.99s WALL (   11187 calls)
     cegterg      :   6883.82s CPU   3475.07s WALL (    5424 calls)

     Called by *egterg:
     cdiaghg      :     61.76s CPU     31.59s WALL (   28830 calls)
     h_psi        :   5502.21s CPU   2782.73s WALL (   28943 calls)
     s_psi        :    313.50s CPU    156.90s WALL (   28943 calls)
     g_psi        :     26.95s CPU     13.52s WALL (   23406 calls)

     Called by h_psi:
     h_psi:calbec :    234.08s CPU    117.33s WALL (   28943 calls)
     vloc_psi     :   4894.55s CPU   2477.94s WALL (   28943 calls)
     add_vuspsi   :    330.31s CPU    165.35s WALL (   28943 calls)

     General routines
     calbec       :    308.07s CPU    154.47s WALL (   34932 calls)
     fft          :      7.44s CPU      3.80s WALL (     564 calls)
     ffts         :      0.57s CPU      0.29s WALL (      48 calls)
     fftw         :   5039.40s CPU   2553.50s WALL ( 1210770 calls)
 
     Parallel routines
 
     PWSCF        :      2h29m CPU      1h15m WALL

 
   This run was terminated on:  13:15:59  15Apr2022            

=------------------------------------------------------------------------------=
   JOB DONE.
=------------------------------------------------------------------------------=
