
     Program PWSCF v.6.8 starts on  6Apr2022 at 11:52:28 

     This program is part of the open-source Quantum ESPRESSO suite
     for quantum simulation of materials; please cite
         "P. Giannozzi et al., J. Phys.:Condens. Matter 21 395502 (2009);
         "P. Giannozzi et al., J. Phys.:Condens. Matter 29 465901 (2017);
         "P. Giannozzi et al., J. Chem. Phys. 152 154105 (2020);
          URL http://www.quantum-espresso.org", 
     in publications or presentations arising from this work. More details at
     http://www.quantum-espresso.org/quote

     Parallel version (MPI & OpenMP), running on       4 processor cores
     Number of MPI processes:                 2
     Threads/MPI process:                     2

     MPI processes distributed on     1 nodes
     R & G space division:  proc/nbgrp/npool/nimage =       2
     125221 MiB available memory on the printing compute node when the environment starts
 
     Reading input from MoS2.scf.75.in

     Current dimensions of program PWSCF are:
     Max number of different atomic species (ntypx) = 10
     Max number of k-points (npk) =  40000
     Max angular momentum in pseudopotentials (lmaxx) =  4
     file Mo.pbesol-spn-kjpaw_psl.1.0.0.UPF: wavefunction(s)  4S 4D renormalized
     file S.pbesol-nl-kjpaw_psl.1.0.0.UPF: wavefunction(s)  3S renormalized

     Subspace diagonalization in iterative solution of the eigenvalue problem:
     a serial algorithm will be used

 
     Parallelization info
     --------------------
     sticks:   dense  smooth     PW     G-vecs:    dense   smooth      PW
     Min         456     366    117                56778    40600    7155
     Max         457     367    118                56797    40611    7156
     Sum         913     733    235               113575    81211   14311
 
     Using Slab Decomposition
 


     bravais-lattice index     =            0
     lattice parameter (alat)  =       6.0720  a.u.
     unit-cell volume          =     924.7995 (a.u.)^3
     number of atoms/cell      =            3
     number of atomic types    =            2
     number of electrons       =        26.00
     number of Kohn-Sham states=           13
     kinetic-energy cutoff     =      75.0000  Ry
     charge density cutoff     =     375.0000  Ry
     scf convergence threshold =      1.0E-12
     mixing beta               =       0.7000
     number of iterations used =            8  plain     mixing
     Exchange-correlation= SLA  PW   PSX  PSC
                           (   1   4  10   8   0   0   0)

     celldm(1)=   6.072000  celldm(2)=   0.000000  celldm(3)=   0.000000
     celldm(4)=   0.000000  celldm(5)=   0.000000  celldm(6)=   0.000000

     crystal axes: (cart. coord. in units of alat)
               a(1) = (   0.976384  -0.000017   0.000000 )  
               a(2) = (  -0.487931   0.846187   0.000000 )  
               a(3) = (   0.000000   0.000000   5.000000 )  

     reciprocal axes: (cart. coord. in units 2 pi/alat)
               b(1) = (  1.024198  0.590577  0.000000 )  
               b(2) = (  0.000021  1.181785  0.000000 )  
               b(3) = (  0.000000  0.000000  0.200000 )  


     PseudoPot. # 1 for Mo read from file:
     /shared/home/as3359/pseudo/Mo.pbesol-spn-kjpaw_psl.1.0.0.UPF
     MD5 check sum: de57925cfc675213e43241dcc441eda8
     Pseudo is Projector augmented-wave + core cor, Zval = 14.0
     Generated using &quot;atomic&quot; code by A. Dal Corso  v.6.3
     Shape of augmentation charge: PSQ
     Using radial grid of 1229 points,  6 beta functions with: 
                l(1) =   0
                l(2) =   0
                l(3) =   1
                l(4) =   1
                l(5) =   2
                l(6) =   2
     Q(r) pseudized with 0 coefficients 


     PseudoPot. # 2 for S  read from file:
     /shared/home/as3359/pseudo/S.pbesol-nl-kjpaw_psl.1.0.0.UPF
     MD5 check sum: bf3db50ec3f960682bbc396f1aadd1dd
     Pseudo is Projector augmented-wave + core cor, Zval =  6.0
     Generated using &quot;atomic&quot; code by A. Dal Corso  v.6.3
     Shape of augmentation charge: PSQ
     Using radial grid of 1151 points,  4 beta functions with: 
                l(1) =   0
                l(2) =   0
                l(3) =   1
                l(4) =   1
     Q(r) pseudized with 0 coefficients 


     atomic species   valence    mass     pseudopotential
        Mo            14.00    95.94000     Mo( 1.00)
        S              6.00    32.06500     S ( 1.00)

     No symmetry found



   Cartesian axes

     site n.     atom                  positions (alat units)
         1           Mo  tau(   1) = (   0.0000000   0.0000000   1.6880765  )
         2           S   tau(   2) = (   0.4883508   0.2821722   2.1737857  )
         3           S   tau(   3) = (   0.4883508   0.2821722   1.2023670  )

     number of k points=    74
                       cart. coord. in units 2pi/alat
        k(    1) = (   0.0000000   0.0000000   0.0000000), wk =   0.0138889
        k(    2) = (   0.0000017   0.0984820   0.0000000), wk =   0.0277778
        k(    3) = (   0.0000035   0.1969641   0.0000000), wk =   0.0277778
        k(    4) = (   0.0000052   0.2954461   0.0000000), wk =   0.0277778
        k(    5) = (   0.0000070   0.3939282   0.0000000), wk =   0.0277778
        k(    6) = (   0.0000087   0.4924102   0.0000000), wk =   0.0277778
        k(    7) = (  -0.0000105  -0.5908923   0.0000000), wk =   0.0138889
        k(    8) = (   0.0853498   0.0492147   0.0000000), wk =   0.0277778
        k(    9) = (   0.0853516   0.1476968   0.0000000), wk =   0.0277778
        k(   10) = (   0.0853533   0.2461788   0.0000000), wk =   0.0277778
        k(   11) = (   0.0853550   0.3446609   0.0000000), wk =   0.0277778
        k(   12) = (   0.0853568   0.4431429   0.0000000), wk =   0.0277778
        k(   13) = (   0.0853585   0.5416249   0.0000000), wk =   0.0277778
        k(   14) = (   0.0853394  -0.5416775   0.0000000), wk =   0.0277778
        k(   15) = (   0.0853411  -0.4431955   0.0000000), wk =   0.0277778
        k(   16) = (   0.0853428  -0.3447135   0.0000000), wk =   0.0277778
        k(   17) = (   0.0853446  -0.2462314   0.0000000), wk =   0.0277778
        k(   18) = (   0.0853463  -0.1477494   0.0000000), wk =   0.0277778
        k(   19) = (   0.0853481  -0.0492673   0.0000000), wk =   0.0277778
        k(   20) = (   0.1706996   0.0984294   0.0000000), wk =   0.0277778
        k(   21) = (   0.1707014   0.1969115   0.0000000), wk =   0.0277778
        k(   22) = (   0.1707031   0.2953935   0.0000000), wk =   0.0277778
        k(   23) = (   0.1707049   0.3938756   0.0000000), wk =   0.0277778
        k(   24) = (   0.1707066   0.4923576   0.0000000), wk =   0.0277778
        k(   25) = (   0.1707083   0.5908397   0.0000000), wk =   0.0277778
        k(   26) = (   0.1706892  -0.4924628   0.0000000), wk =   0.0277778
        k(   27) = (   0.1706909  -0.3939808   0.0000000), wk =   0.0277778
        k(   28) = (   0.1706927  -0.2954987   0.0000000), wk =   0.0277778
        k(   29) = (   0.1706944  -0.1970167   0.0000000), wk =   0.0277778
        k(   30) = (   0.1706961  -0.0985346   0.0000000), wk =   0.0277778
        k(   31) = (   0.1706979  -0.0000526   0.0000000), wk =   0.0277778
        k(   32) = (   0.2560494   0.1476442   0.0000000), wk =   0.0277778
        k(   33) = (   0.2560512   0.2461262   0.0000000), wk =   0.0277778
        k(   34) = (   0.2560529   0.3446082   0.0000000), wk =   0.0277778
        k(   35) = (   0.2560547   0.4430903   0.0000000), wk =   0.0277778
        k(   36) = (   0.2560564   0.5415723   0.0000000), wk =   0.0277778
        k(   37) = (   0.2560582   0.6400544   0.0000000), wk =   0.0277778
        k(   38) = (   0.2560390  -0.4432481   0.0000000), wk =   0.0277778
        k(   39) = (   0.2560407  -0.3447661   0.0000000), wk =   0.0277778
        k(   40) = (   0.2560425  -0.2462840   0.0000000), wk =   0.0277778
        k(   41) = (   0.2560442  -0.1478020   0.0000000), wk =   0.0277778
        k(   42) = (   0.2560460  -0.0493199   0.0000000), wk =   0.0277778
        k(   43) = (   0.2560477   0.0491621   0.0000000), wk =   0.0277778
        k(   44) = (   0.3413993   0.1968589   0.0000000), wk =   0.0277778
        k(   45) = (   0.3414010   0.2953409   0.0000000), wk =   0.0277778
        k(   46) = (   0.3414027   0.3938230   0.0000000), wk =   0.0277778
        k(   47) = (   0.3414045   0.4923050   0.0000000), wk =   0.0277778
        k(   48) = (   0.3414062   0.5907871   0.0000000), wk =   0.0277778
        k(   49) = (   0.3414080   0.6892691   0.0000000), wk =   0.0277778
        k(   50) = (   0.3413888  -0.3940334   0.0000000), wk =   0.0277778
        k(   51) = (   0.3413905  -0.2955513   0.0000000), wk =   0.0277778
        k(   52) = (   0.3413923  -0.1970693   0.0000000), wk =   0.0277778
        k(   53) = (   0.3413940  -0.0985872   0.0000000), wk =   0.0277778
        k(   54) = (   0.3413958  -0.0001052   0.0000000), wk =   0.0277778
        k(   55) = (   0.3413975   0.0983768   0.0000000), wk =   0.0277778
        k(   56) = (   0.4267491   0.2460736   0.0000000), wk =   0.0277778
        k(   57) = (   0.4267508   0.3445556   0.0000000), wk =   0.0277778
        k(   58) = (   0.4267526   0.4430377   0.0000000), wk =   0.0277778
        k(   59) = (   0.4267543   0.5415197   0.0000000), wk =   0.0277778
        k(   60) = (   0.4267560   0.6400018   0.0000000), wk =   0.0277778
        k(   61) = (   0.4267578   0.7384838   0.0000000), wk =   0.0277778
        k(   62) = (   0.4267386  -0.3448187   0.0000000), wk =   0.0277778
        k(   63) = (   0.4267404  -0.2463366   0.0000000), wk =   0.0277778
        k(   64) = (   0.4267421  -0.1478546   0.0000000), wk =   0.0277778
        k(   65) = (   0.4267438  -0.0493725   0.0000000), wk =   0.0277778
        k(   66) = (   0.4267456   0.0491095   0.0000000), wk =   0.0277778
        k(   67) = (   0.4267473   0.1475916   0.0000000), wk =   0.0277778
        k(   68) = (  -0.5120989  -0.2952883   0.0000000), wk =   0.0138889
        k(   69) = (  -0.5120971  -0.1968063   0.0000000), wk =   0.0277778
        k(   70) = (  -0.5120954  -0.0983242   0.0000000), wk =   0.0277778
        k(   71) = (  -0.5120937   0.0001578   0.0000000), wk =   0.0277778
        k(   72) = (  -0.5120919   0.0986398   0.0000000), wk =   0.0277778
        k(   73) = (  -0.5120902   0.1971219   0.0000000), wk =   0.0277778
        k(   74) = (  -0.5121093  -0.8861806   0.0000000), wk =   0.0138889

     Dense  grid:   113575 G-vectors     FFT dimensions: (  40,  40, 192)

     Smooth grid:    81211 G-vectors     FFT dimensions: (  36,  36, 180)

     Estimated max dynamical RAM per process >     291.17 MB

     Estimated total dynamical RAM >     582.34 MB

     Initial potential from superposition of free atoms

     starting charge   25.99914, renormalised to   26.00000

     negative rho (up, down):  2.369E-04 0.000E+00
     Starting wfcs are   18 randomized atomic wfcs
     Checking if some PAW data can be deallocated... 

     total cpu time spent up to now is        3.5 secs

     Self-consistent Calculation

     iteration #  1     ecut=    75.00 Ry     beta= 0.70
     Davidson diagonalization with overlap
     ethr =  1.00E-02,  avg # of iterations =  2.0

     Threshold (ethr) on eigenvalues was too large:
     Diagonalizing with lowered threshold

     Davidson diagonalization with overlap
     ethr =  3.45E-04,  avg # of iterations =  3.9

     negative rho (up, down):  2.515E-04 0.000E+00

     total cpu time spent up to now is       10.9 secs

     total energy              =    -489.69315737 Ry
     estimated scf accuracy    <       0.14252085 Ry

     iteration #  2     ecut=    75.00 Ry     beta= 0.70
     Davidson diagonalization with overlap
     ethr =  5.48E-04,  avg # of iterations =  5.2

     negative rho (up, down):  2.311E-04 0.000E+00

     total cpu time spent up to now is       15.6 secs

     total energy              =    -489.64908174 Ry
     estimated scf accuracy    <       0.56117456 Ry

     iteration #  3     ecut=    75.00 Ry     beta= 0.70
     Davidson diagonalization with overlap
     ethr =  5.48E-04,  avg # of iterations =  5.2

     negative rho (up, down):  2.313E-04 0.000E+00

     total cpu time spent up to now is       20.3 secs

     total energy              =    -489.75244424 Ry
     estimated scf accuracy    <       0.03218332 Ry

     iteration #  4     ecut=    75.00 Ry     beta= 0.70
     Davidson diagonalization with overlap
     ethr =  1.24E-04,  avg # of iterations =  2.5

     negative rho (up, down):  2.406E-04 0.000E+00

     total cpu time spent up to now is       23.7 secs

     total energy              =    -489.75466465 Ry
     estimated scf accuracy    <       0.00451791 Ry

     iteration #  5     ecut=    75.00 Ry     beta= 0.70
     Davidson diagonalization with overlap
     ethr =  1.74E-05,  avg # of iterations =  4.8

     negative rho (up, down):  2.413E-04 0.000E+00

     total cpu time spent up to now is       28.2 secs

     total energy              =    -489.75728894 Ry
     estimated scf accuracy    <       0.00421164 Ry

     iteration #  6     ecut=    75.00 Ry     beta= 0.70
     Davidson diagonalization with overlap
     ethr =  1.62E-05,  avg # of iterations =  1.0

     negative rho (up, down):  2.433E-04 0.000E+00

     total cpu time spent up to now is       31.1 secs

     total energy              =    -489.75660558 Ry
     estimated scf accuracy    <       0.00296486 Ry

     iteration #  7     ecut=    75.00 Ry     beta= 0.70
     Davidson diagonalization with overlap
     ethr =  1.14E-05,  avg # of iterations =  2.7

     negative rho (up, down):  2.448E-04 0.000E+00

     total cpu time spent up to now is       34.5 secs

     total energy              =    -489.75685887 Ry
     estimated scf accuracy    <       0.00037081 Ry

     iteration #  8     ecut=    75.00 Ry     beta= 0.70
     Davidson diagonalization with overlap
     ethr =  1.43E-06,  avg # of iterations =  4.7

     negative rho (up, down):  2.472E-04 0.000E+00

     total cpu time spent up to now is       38.5 secs

     total energy              =    -489.75695825 Ry
     estimated scf accuracy    <       0.00003913 Ry

     iteration #  9     ecut=    75.00 Ry     beta= 0.70
     Davidson diagonalization with overlap
     ethr =  1.51E-07,  avg # of iterations =  4.9

     negative rho (up, down):  2.473E-04 0.000E+00

     total cpu time spent up to now is       43.2 secs

     total energy              =    -489.75697360 Ry
     estimated scf accuracy    <       0.00011113 Ry

     iteration # 10     ecut=    75.00 Ry     beta= 0.70
     Davidson diagonalization with overlap
     ethr =  1.51E-07,  avg # of iterations =  3.0

     negative rho (up, down):  2.471E-04 0.000E+00

     total cpu time spent up to now is       46.7 secs

     total energy              =    -489.75695013 Ry
     estimated scf accuracy    <       0.00009000 Ry

     iteration # 11     ecut=    75.00 Ry     beta= 0.70
     Davidson diagonalization with overlap
     ethr =  1.51E-07,  avg # of iterations =  3.9

     negative rho (up, down):  2.473E-04 0.000E+00

     total cpu time spent up to now is       50.8 secs

     total energy              =    -489.75696342 Ry
     estimated scf accuracy    <       0.00001649 Ry

     iteration # 12     ecut=    75.00 Ry     beta= 0.70
     Davidson diagonalization with overlap
     ethr =  6.34E-08,  avg # of iterations =  2.6

     negative rho (up, down):  2.473E-04 0.000E+00

     total cpu time spent up to now is       54.2 secs

     total energy              =    -489.75696485 Ry
     estimated scf accuracy    <       0.00000252 Ry

     iteration # 13     ecut=    75.00 Ry     beta= 0.70
     Davidson diagonalization with overlap
     ethr =  9.68E-09,  avg # of iterations =  4.5

     negative rho (up, down):  2.473E-04 0.000E+00

     total cpu time spent up to now is       58.3 secs

     total energy              =    -489.75696533 Ry
     estimated scf accuracy    <       0.00000088 Ry

     iteration # 14     ecut=    75.00 Ry     beta= 0.70
     Davidson diagonalization with overlap
     ethr =  3.38E-09,  avg # of iterations =  2.3

     negative rho (up, down):  2.473E-04 0.000E+00

     total cpu time spent up to now is       61.6 secs

     total energy              =    -489.75696536 Ry
     estimated scf accuracy    <       0.00000016 Ry

     iteration # 15     ecut=    75.00 Ry     beta= 0.70
     Davidson diagonalization with overlap
     ethr =  6.14E-10,  avg # of iterations =  5.1

     negative rho (up, down):  2.473E-04 0.000E+00

     total cpu time spent up to now is       66.1 secs

     total energy              =    -489.75696544 Ry
     estimated scf accuracy    <       0.00000010 Ry

     iteration # 16     ecut=    75.00 Ry     beta= 0.70
     Davidson diagonalization with overlap
     ethr =  4.01E-10,  avg # of iterations =  1.2

     negative rho (up, down):  2.473E-04 0.000E+00

     total cpu time spent up to now is       69.1 secs

     total energy              =    -489.75696542 Ry
     estimated scf accuracy    <       0.00000006 Ry

     iteration # 17     ecut=    75.00 Ry     beta= 0.70
     Davidson diagonalization with overlap
     ethr =  2.35E-10,  avg # of iterations =  3.5

     negative rho (up, down):  2.473E-04 0.000E+00

     total cpu time spent up to now is       72.8 secs

     total energy              =    -489.75696543 Ry
     estimated scf accuracy    <       0.00000002 Ry

     iteration # 18     ecut=    75.00 Ry     beta= 0.70
     Davidson diagonalization with overlap
     ethr =  6.38E-11,  avg # of iterations =  2.6

     negative rho (up, down):  2.473E-04 0.000E+00

     total cpu time spent up to now is       76.2 secs

     total energy              =    -489.75696543 Ry
     estimated scf accuracy    <       0.00000001 Ry

     iteration # 19     ecut=    75.00 Ry     beta= 0.70
     Davidson diagonalization with overlap
     ethr =  5.31E-11,  avg # of iterations =  1.2

     negative rho (up, down):  2.473E-04 0.000E+00

     total cpu time spent up to now is       79.1 secs

     total energy              =    -489.75696543 Ry
     estimated scf accuracy    <       0.00000001 Ry

     iteration # 20     ecut=    75.00 Ry     beta= 0.70
     Davidson diagonalization with overlap
     ethr =  4.93E-11,  avg # of iterations =  1.8

     negative rho (up, down):  2.473E-04 0.000E+00

     total cpu time spent up to now is       82.1 secs

     total energy              =    -489.75696543 Ry
     estimated scf accuracy    <          7.5E-09 Ry

     iteration # 21     ecut=    75.00 Ry     beta= 0.70
     Davidson diagonalization with overlap
     ethr =  2.89E-11,  avg # of iterations =  1.7

     negative rho (up, down):  2.473E-04 0.000E+00

     total cpu time spent up to now is       85.1 secs

     total energy              =    -489.75696543 Ry
     estimated scf accuracy    <          3.5E-09 Ry

     iteration # 22     ecut=    75.00 Ry     beta= 0.70
     Davidson diagonalization with overlap
     ethr =  1.33E-11,  avg # of iterations =  3.6

     negative rho (up, down):  2.473E-04 0.000E+00

     total cpu time spent up to now is       88.8 secs

     total energy              =    -489.75696543 Ry
     estimated scf accuracy    <          3.2E-11 Ry

     iteration # 23     ecut=    75.00 Ry     beta= 0.70
     Davidson diagonalization with overlap
     ethr =  1.24E-13,  avg # of iterations =  7.1

     negative rho (up, down):  2.473E-04 0.000E+00

     total cpu time spent up to now is       94.4 secs

     total energy              =    -489.75696543 Ry
     estimated scf accuracy    <          2.5E-10 Ry

     iteration # 24     ecut=    75.00 Ry     beta= 0.70
     Davidson diagonalization with overlap
     ethr =  1.24E-13,  avg # of iterations =  5.3

     negative rho (up, down):  2.473E-04 0.000E+00

     total cpu time spent up to now is       99.1 secs

     total energy              =    -489.75696543 Ry
     estimated scf accuracy    <          2.9E-11 Ry

     iteration # 25     ecut=    75.00 Ry     beta= 0.70
     Davidson diagonalization with overlap
     ethr =  1.11E-13,  avg # of iterations =  4.6

     negative rho (up, down):  2.473E-04 0.000E+00

     total cpu time spent up to now is      103.4 secs

     total energy              =    -489.75696543 Ry
     estimated scf accuracy    <          1.6E-10 Ry

     iteration # 26     ecut=    75.00 Ry     beta= 0.70
     Davidson diagonalization with overlap
     ethr =  1.11E-13,  avg # of iterations =  2.1

     negative rho (up, down):  2.473E-04 0.000E+00

     total cpu time spent up to now is      106.7 secs

     total energy              =    -489.75696543 Ry
     estimated scf accuracy    <          8.0E-11 Ry

     iteration # 27     ecut=    75.00 Ry     beta= 0.70
     Davidson diagonalization with overlap
     ethr =  1.11E-13,  avg # of iterations =  3.2

     negative rho (up, down):  2.473E-04 0.000E+00

     total cpu time spent up to now is      110.2 secs

     total energy              =    -489.75696543 Ry
     estimated scf accuracy    <          1.8E-11 Ry

     iteration # 28     ecut=    75.00 Ry     beta= 0.70
     Davidson diagonalization with overlap
     ethr =  1.00E-13,  avg # of iterations =  1.9

     negative rho (up, down):  2.473E-04 0.000E+00

     total cpu time spent up to now is      113.3 secs

     total energy              =    -489.75696543 Ry
     estimated scf accuracy    <          3.5E-12 Ry

     iteration # 29     ecut=    75.00 Ry     beta= 0.70
     Davidson diagonalization with overlap
     ethr =  1.00E-13,  avg # of iterations =  1.1

     negative rho (up, down):  2.473E-04 0.000E+00

     total cpu time spent up to now is      116.2 secs

     End of self-consistent calculation

          k = 0.0000 0.0000 0.0000 ( 10121 PWs)   bands (ev):

   -60.3458 -34.5533 -34.2856 -34.2843 -13.8554 -12.5038  -5.4145  -2.2347
    -2.2260  -1.4940  -1.0737  -1.0672   0.2787

          k = 0.0000 0.0985 0.0000 ( 10122 PWs)   bands (ev):

   -60.3428 -34.5474 -34.3156 -34.2911 -13.7455 -12.4584  -5.2905  -2.4748
    -2.1116  -1.9585  -1.2407  -0.7778   0.2365

          k = 0.0000 0.1970 0.0000 ( 10108 PWs)   bands (ev):

   -60.3344 -34.5311 -34.3969 -34.3095 -13.4327 -12.3295  -4.9799  -3.0231
    -2.6263  -1.7912  -1.6472  -0.7042   0.0213

          k = 0.0000 0.2954 0.0000 ( 10140 PWs)   bands (ev):

   -60.3230 -34.5088 -34.5063 -34.3345 -12.9681 -12.1395  -4.7598  -3.4846
    -3.3110  -2.1007  -1.3427  -0.9773  -0.4116

          k = 0.0000 0.3939 0.0000 ( 10166 PWs)   bands (ev):

   -60.3116 -34.6139 -34.4865 -34.3595 -12.4429 -11.9296  -5.0169  -3.9459
    -3.5889  -2.4812  -1.3009  -0.8972  -0.6653

          k = 0.0000 0.4924 0.0000 ( 10136 PWs)   bands (ev):

   -60.3032 -34.6917 -34.4700 -34.3776 -12.0010 -11.7599  -5.4148  -4.4119
    -3.7138  -2.7278  -1.5048  -0.5934  -0.4741

          k =-0.0000-0.5909 0.0000 ( 10154 PWs)   bands (ev):

   -60.3001 -34.7199 -34.4640 -34.3842 -11.8220 -11.6937  -5.5873  -4.5847
    -3.8032  -2.8127  -1.5700  -0.4920  -0.2951

          k = 0.0853 0.0492 0.0000 ( 10117 PWs)   bands (ev):

   -60.3428 -34.5474 -34.3148 -34.2919 -13.7454 -12.4583  -5.2905  -2.4713
    -2.1155  -1.9563  -1.2460  -0.7750   0.2369

          k = 0.0854 0.1477 0.0000 ( 10109 PWs)   bands (ev):

   -60.3371 -34.5363 -34.3694 -34.3055 -13.5341 -12.3711  -5.0693  -2.8611
    -2.4005  -1.9034  -1.6500  -0.5823   0.1085

          k = 0.0854 0.2462 0.0000 ( 10114 PWs)   bands (ev):

   -60.3272 -34.5170 -34.4610 -34.3310 -13.1444 -12.2104  -4.7709  -3.3490
    -2.9636  -2.2309  -1.5739  -0.6200  -0.2247

          k = 0.0854 0.3447 0.0000 ( 10152 PWs)   bands (ev):

   -60.3158 -34.5648 -34.4947 -34.3607 -12.6455 -12.0070  -4.7991  -3.6380
    -3.5308  -2.6169  -1.3412  -0.9379  -0.5032

          k = 0.0854 0.4431 0.0000 ( 10156 PWs)   bands (ev):

   -60.3058 -34.6534 -34.4752 -34.3862 -12.1525 -11.8108  -5.1611  -4.2548
    -3.5841  -2.7874  -1.2951  -1.2410  -0.3611

          k = 0.0854 0.5416 0.0000 ( 10154 PWs)   bands (ev):

   -60.3001 -34.7041 -34.4640 -34.4010 -11.8302 -11.6869  -5.4418  -4.6161
    -3.7356  -2.8384  -1.5176  -1.0960  -0.1136

          k = 0.0853-0.5417 0.0000 ( 10154 PWs)   bands (ev):

   -60.3001 -34.7041 -34.4640 -34.4009 -11.8300 -11.6869  -5.4420  -4.6160
    -3.7356  -2.8390  -1.5171  -1.0951  -0.1147

          k = 0.0853-0.4432 0.0000 ( 10156 PWs)   bands (ev):

   -60.3058 -34.6535 -34.4752 -34.3862 -12.1521 -11.8107  -5.1615  -4.2546
    -3.5842  -2.7886  -1.2940  -1.2389  -0.3634

          k = 0.0853-0.3447 0.0000 ( 10152 PWs)   bands (ev):

   -60.3157 -34.5650 -34.4946 -34.3607 -12.6451 -12.0068  -4.7993  -3.6380
    -3.5309  -2.6175  -1.3394  -0.9370  -0.5055

          k = 0.0853-0.2462 0.0000 ( 10116 PWs)   bands (ev):

   -60.3272 -34.5170 -34.4610 -34.3311 -13.1440 -12.2103  -4.7707  -3.3485
    -2.9645  -2.2303  -1.5744  -0.6197  -0.2256

          k = 0.0853-0.1477 0.0000 ( 10113 PWs)   bands (ev):

   -60.3370 -34.5363 -34.3693 -34.3057 -13.5339 -12.3710  -5.0690  -2.8590
    -2.4015  -1.9061  -1.6490  -0.5823   0.1084

          k = 0.0853-0.0493 0.0000 ( 10117 PWs)   bands (ev):

   -60.3427 -34.5474 -34.3145 -34.2922 -13.7454 -12.4583  -5.2904  -2.4682
    -2.1189  -1.9567  -1.2457  -0.7750   0.2369

          k = 0.1707 0.0984 0.0000 ( 10106 PWs)   bands (ev):

   -60.3344 -34.5311 -34.3962 -34.3104 -13.4324 -12.3290  -4.9797  -3.0205
    -2.6235  -1.7950  -1.6530  -0.7027   0.0230

          k = 0.1707 0.1969 0.0000 ( 10114 PWs)   bands (ev):

   -60.3272 -34.5170 -34.4606 -34.3315 -13.1441 -12.2100  -4.7710  -3.3476
    -2.9614  -2.2346  -1.5759  -0.6200  -0.2235

          k = 0.1707 0.2954 0.0000 ( 10147 PWs)   bands (ev):

   -60.3173 -34.5394 -34.4977 -34.3688 -12.7174 -12.0331  -4.6897  -3.4872
    -3.3883  -2.8935  -1.5787  -0.6548  -0.4348

          k = 0.1707 0.3939 0.0000 ( 10148 PWs)   bands (ev):

   -60.3073 -34.6133 -34.4783 -34.4099 -12.2401 -11.8353  -4.8886  -4.1147
    -3.3894  -3.0081  -1.8999  -0.9774  -0.3639

          k = 0.1707 0.4924 0.0000 ( 10136 PWs)   bands (ev):

   -60.3001 -34.6656 -34.4640 -34.4413 -11.8461 -11.6732  -5.1014  -4.6739
    -3.5277  -2.9128  -2.0141  -1.3742  -0.1095

          k = 0.1707 0.5908 0.0000 ( 10150 PWs)   bands (ev):

   -60.2974 -34.6845 -34.4588 -34.4530 -11.6892 -11.6093  -5.1814  -4.8777
    -3.6694  -2.8313  -1.9985  -1.5664   0.0714

          k = 0.1707-0.4925 0.0000 ( 10140 PWs)   bands (ev):

   -60.3000 -34.6658 -34.4640 -34.4413 -11.8456 -11.6731  -5.1021  -4.6738
    -3.5279  -2.9139  -2.0125  -1.3732  -0.1112

          k = 0.1707-0.3940 0.0000 ( 10148 PWs)   bands (ev):

   -60.3073 -34.6136 -34.4782 -34.4099 -12.2393 -11.8351  -4.8894  -4.1144
    -3.3895  -3.0094  -1.8978  -0.9763  -0.3662

          k = 0.1707-0.2955 0.0000 ( 10151 PWs)   bands (ev):

   -60.3172 -34.5396 -34.4976 -34.3689 -12.7166 -12.0329  -4.6898  -3.4865
    -3.3885  -2.8942  -1.5781  -0.6540  -0.4370

          k = 0.1707-0.1970 0.0000 ( 10116 PWs)   bands (ev):

   -60.3271 -34.5169 -34.4606 -34.3318 -13.1435 -12.2098  -4.7706  -3.3458
    -2.9620  -2.2347  -1.5781  -0.6194  -0.2242

          k = 0.1707-0.0985 0.0000 ( 10104 PWs)   bands (ev):

   -60.3344 -34.5311 -34.3960 -34.3107 -13.4321 -12.3289  -4.9794  -3.0182
    -2.6238  -1.7981  -1.6536  -0.7020   0.0231

          k = 0.1707-0.0001 0.0000 ( 10109 PWs)   bands (ev):

   -60.3370 -34.5362 -34.3688 -34.3064 -13.5336 -12.3706  -5.0689  -2.8571
    -2.3996  -1.9090  -1.6526  -0.5814   0.1094

          k = 0.2560 0.1476 0.0000 ( 10142 PWs)   bands (ev):

   -60.3229 -34.5088 -34.5058 -34.3355 -12.9674 -12.1383  -4.7599  -3.4823
    -3.3089  -2.1070  -1.3465  -0.9764  -0.4088

          k = 0.2561 0.2461 0.0000 ( 10154 PWs)   bands (ev):

   -60.3157 -34.5644 -34.4946 -34.3615 -12.6449 -12.0058  -4.7990  -3.6362
    -3.5287  -2.6216  -1.3439  -0.9377  -0.5017

          k = 0.2561 0.3446 0.0000 ( 10146 PWs)   bands (ev):

   -60.3073 -34.6131 -34.4782 -34.4103 -12.2398 -11.8346  -4.8883  -4.1145
    -3.3884  -3.0099  -1.9013  -0.9773  -0.3635

          k = 0.2561 0.4431 0.0000 ( 10154 PWs)   bands (ev):

   -60.3000 -34.6397 -34.4683 -34.4640 -11.8537 -11.6658  -4.8958  -4.7010
    -3.2620  -2.9582  -2.6207  -1.2852  -0.1376

          k = 0.2561 0.5416 0.0000 ( 10150 PWs)   bands (ev):

   -60.2958 -34.6453 -34.5115 -34.4557 -11.6123 -11.5571  -5.0669  -4.7709
    -3.5328  -2.8884  -2.7488  -1.6398   0.1796

          k = 0.2561 0.6401 0.0000 ( 10154 PWs)   bands (ev):

   -60.2958 -34.6454 -34.5115 -34.4557 -11.6120 -11.5570  -5.0669  -4.7715
    -3.5332  -2.8874  -2.7494  -1.6393   0.1789

          k = 0.2560-0.4432 0.0000 ( 10154 PWs)   bands (ev):

   -60.3000 -34.6400 -34.4683 -34.4639 -11.8527 -11.6655  -4.8968  -4.7009
    -3.2623  -2.9595  -2.6189  -1.2845  -0.1392

          k = 0.2560-0.3448 0.0000 ( 10149 PWs)   bands (ev):

   -60.3073 -34.6134 -34.4781 -34.4106 -12.2386 -11.8342  -4.8890  -4.1143
    -3.3871  -3.0115  -1.9009  -0.9766  -0.3656

          k = 0.2560-0.2463 0.0000 ( 10154 PWs)   bands (ev):

   -60.3157 -34.5645 -34.4945 -34.3618 -12.6439 -12.0054  -4.7990  -3.6361
    -3.5268  -2.6233  -1.3447  -0.9371  -0.5037

          k = 0.2560-0.1478 0.0000 ( 10142 PWs)   bands (ev):

   -60.3229 -34.5087 -34.5057 -34.3359 -12.9667 -12.1380  -4.7595  -3.4801
    -3.3088  -2.1085  -1.3494  -0.9757  -0.4089

          k = 0.2560-0.0493 0.0000 ( 10116 PWs)   bands (ev):

   -60.3271 -34.5169 -34.4605 -34.3322 -13.1431 -12.2092  -4.7704  -3.3462
    -2.9623  -2.2354  -1.5785  -0.6193  -0.2235

          k = 0.2560 0.0492 0.0000 ( 10118 PWs)   bands (ev):

   -60.3271 -34.5169 -34.4606 -34.3320 -13.1434 -12.2093  -4.7706  -3.3474
    -2.9625  -2.2347  -1.5768  -0.6195  -0.2237

          k = 0.3414 0.1969 0.0000 ( 10166 PWs)   bands (ev):

   -60.3115 -34.6136 -34.4864 -34.3605 -12.4418 -11.9276  -5.0167  -3.9454
    -3.5871  -2.4879  -1.2993  -0.9016  -0.6620

          k = 0.3414 0.2953 0.0000 ( 10160 PWs)   bands (ev):

   -60.3057 -34.6531 -34.4751 -34.3872 -12.1515 -11.8089  -5.1603  -4.2550
    -3.5829  -2.7925  -1.2939  -1.2433  -0.3603

          k = 0.3414 0.3938 0.0000 ( 10136 PWs)   bands (ev):

   -60.3000 -34.6653 -34.4639 -34.4420 -11.8454 -11.6717  -5.1005  -4.6750
    -3.5272  -2.9154  -2.0166  -1.3731  -0.1083

          k = 0.3414 0.4923 0.0000 ( 10150 PWs)   bands (ev):

   -60.2958 -34.6451 -34.5119 -34.4557 -11.6119 -11.5563  -5.0678  -4.7705
    -3.5324  -2.8900  -2.7500  -1.6388   0.1801

          k = 0.3414 0.5908 0.0000 ( 10152 PWs)   bands (ev):

   -60.2942 -34.6127 -34.5627 -34.4527 -11.5246 -11.5101  -5.2236  -4.3605
    -3.8340  -3.2104  -2.5874  -1.8346   0.3754

          k = 0.3414 0.6893 0.0000 ( 10150 PWs)   bands (ev):

   -60.2958 -34.6452 -34.5120 -34.4557 -11.6111 -11.5560  -5.0679  -4.7711
    -3.5319  -2.8900  -2.7508  -1.6387   0.1796

          k = 0.3414-0.3940 0.0000 ( 10136 PWs)   bands (ev):

   -60.3000 -34.6655 -34.4638 -34.4423 -11.8440 -11.6712  -5.1011  -4.6750
    -3.5260  -2.9170  -2.0171  -1.3728  -0.1095

          k = 0.3414-0.2956 0.0000 ( 10158 PWs)   bands (ev):

   -60.3057 -34.6532 -34.4750 -34.3877 -12.1501 -11.8083  -5.1604  -4.2546
    -3.5812  -2.7948  -1.2935  -1.2440  -0.3622

          k = 0.3414-0.1971 0.0000 ( 10166 PWs)   bands (ev):

   -60.3114 -34.6136 -34.4863 -34.3610 -12.4407 -11.9272  -5.0165  -3.9451
    -3.5849  -2.4900  -1.2989  -0.9043  -0.6622

          k = 0.3414-0.0986 0.0000 ( 10156 PWs)   bands (ev):

   -60.3156 -34.5646 -34.4945 -34.3620 -12.6434 -12.0048  -4.7995  -3.6373
    -3.5275  -2.6229  -1.3430  -0.9369  -0.5047

          k = 0.3414-0.0001 0.0000 ( 10158 PWs)   bands (ev):

   -60.3172 -34.5395 -34.4975 -34.3694 -12.7158 -12.0316  -4.6902  -3.4870
    -3.3899  -2.8950  -1.5767  -0.6539  -0.4377

          k = 0.3414 0.0984 0.0000 ( 10152 PWs)   bands (ev):

   -60.3157 -34.5647 -34.4945 -34.3616 -12.6441 -12.0051  -4.7996  -3.6376
    -3.5295  -2.6219  -1.3404  -0.9366  -0.5051

          k = 0.4267 0.2461 0.0000 ( 10138 PWs)   bands (ev):

   -60.3031 -34.6914 -34.4699 -34.3787 -11.9997 -11.7572  -5.4139  -4.4129
    -3.7132  -2.7347  -1.5021  -0.5987  -0.4704

          k = 0.4268 0.3446 0.0000 ( 10154 PWs)   bands (ev):

   -60.3000 -34.7038 -34.4639 -34.4020 -11.8289 -11.6843  -5.4405  -4.6177
    -3.7355  -2.8440  -1.5152  -1.0990  -0.1122

          k = 0.4268 0.4430 0.0000 ( 10152 PWs)   bands (ev):

   -60.2973 -34.6843 -34.4587 -34.4538 -11.6881 -11.6071  -5.1807  -4.8797
    -3.6693  -2.8348  -2.0009  -1.5642   0.0724

          k = 0.4268 0.5415 0.0000 ( 10152 PWs)   bands (ev):

   -60.2958 -34.6453 -34.5120 -34.4557 -11.6111 -11.5556  -5.0686  -4.7723
    -3.5322  -2.8884  -2.7512  -1.6378   0.1782

          k = 0.4268 0.6400 0.0000 ( 10150 PWs)   bands (ev):

   -60.2957 -34.6453 -34.5121 -34.4556 -11.6107 -11.5554  -5.0687  -4.7723
    -3.5314  -2.8896  -2.7513  -1.6381   0.1784

          k = 0.4268 0.7385 0.0000 ( 10152 PWs)   bands (ev):

   -60.2973 -34.6843 -34.4586 -34.4542 -11.6868 -11.6066  -5.1808  -4.8799
    -3.6684  -2.8358  -2.0024  -1.5645   0.0725

          k = 0.4267-0.3448 0.0000 ( 10152 PWs)   bands (ev):

   -60.2999 -34.7039 -34.4638 -34.4025 -11.8273 -11.6836  -5.4406  -4.6176
    -3.7343  -2.8463  -1.5151  -1.1005  -0.1129

          k = 0.4267-0.2463 0.0000 ( 10142 PWs)   bands (ev):

   -60.3030 -34.6915 -34.4698 -34.3793 -11.9981 -11.7566  -5.4137  -4.4125
    -3.7117  -2.7373  -1.5020  -0.6016  -0.4701

          k = 0.4267-0.1479 0.0000 ( 10158 PWs)   bands (ev):

   -60.3057 -34.6533 -34.4750 -34.3877 -12.1497 -11.8078  -5.1613  -4.2556
    -3.5812  -2.7947  -1.2930  -1.2425  -0.3639

          k = 0.4267-0.0494 0.0000 ( 10151 PWs)   bands (ev):

   -60.3072 -34.6135 -34.4781 -34.4108 -12.2378 -11.8330  -4.8905  -4.1165
    -3.3877  -3.0114  -1.8981  -0.9761  -0.3679

          k = 0.4267 0.0491 0.0000 ( 10150 PWs)   bands (ev):

   -60.3072 -34.6136 -34.4781 -34.4106 -12.2382 -11.8332  -4.8906  -4.1165
    -3.3891  -3.0111  -1.8965  -0.9757  -0.3681

          k = 0.4267 0.1476 0.0000 ( 10158 PWs)   bands (ev):

   -60.3057 -34.6533 -34.4751 -34.3872 -12.1508 -11.8083  -5.1616  -4.2558
    -3.5831  -2.7935  -1.2925  -1.2397  -0.3642

          k =-0.5121-0.2953 0.0000 ( 10166 PWs)   bands (ev):

   -60.3000 -34.7197 -34.4638 -34.3854 -11.8206 -11.6906  -5.5860  -4.5864
    -3.8033  -2.8197  -1.5669  -0.4978  -0.2912

          k =-0.5121-0.1968 0.0000 ( 10152 PWs)   bands (ev):

   -60.3000 -34.7039 -34.4638 -34.4020 -11.8286 -11.6841  -5.4412  -4.6180
    -3.7354  -2.8446  -1.5145  -1.0976  -0.1142

          k =-0.5121-0.0983 0.0000 ( 10142 PWs)   bands (ev):

   -60.3000 -34.6657 -34.4639 -34.4421 -11.8443 -11.6708  -5.1027  -4.6761
    -3.5272  -2.9168  -2.0135  -1.3716  -0.1121

          k =-0.5121 0.0002 0.0000 ( 10152 PWs)   bands (ev):

   -60.2999 -34.6401 -34.4687 -34.4639 -11.8517 -11.6640  -4.8987  -4.7031
    -3.2625  -2.9604  -2.6171  -1.2835  -0.1414

          k =-0.5121 0.0986 0.0000 ( 10142 PWs)   bands (ev):

   -60.2999 -34.6657 -34.4638 -34.4424 -11.8434 -11.6704  -5.1025  -4.6763
    -3.5258  -2.9172  -2.0157  -1.3722  -0.1116

          k =-0.5121 0.1971 0.0000 ( 10152 PWs)   bands (ev):

   -60.2999 -34.7040 -34.4637 -34.4025 -11.8271 -11.6834  -5.4410  -4.6179
    -3.7342  -2.8464  -1.5148  -1.0999  -0.1138

          k =-0.5121-0.8862 0.0000 ( 10162 PWs)   bands (ev):

   -60.2999 -34.7197 -34.4637 -34.3859 -11.8189 -11.6899  -5.5858  -4.5861
    -3.8021  -2.8224  -1.5668  -0.5008  -0.2905

     highest occupied level (ev):     0.3754

!    total energy              =    -489.75696543 Ry

     total all-electron energy =     -9688.214811 Ry
     estimated scf accuracy    <          2.7E-13 Ry

     The total energy is the sum of the following terms:
     one-electron contribution =    -813.90431669 Ry
     hartree contribution      =     410.77358924 Ry
     xc contribution           =     -29.52473827 Ry
     ewald contribution        =     255.78841210 Ry
     one-center paw contrib.   =    -312.88991182 Ry

     convergence has been achieved in  29 iterations

     negative rho (up, down):  2.473E-04 0.000E+00

     Forces acting on atoms (cartesian axes, Ry/au):

     atom    1 type  1   force =     0.00026844    0.00012915   -0.00000546
     atom    2 type  2   force =    -0.00013421   -0.00006452   -0.00031481
     atom    3 type  2   force =    -0.00013423   -0.00006463    0.00032027

     Total force =     0.000579     Total SCF correction =     0.000004


     Computing stress (Cartesian axis) and pressure


     negative rho (up, down):  2.473E-04 0.000E+00
          total   stress  (Ry/bohr**3)                   (kbar)     P=        0.56
   0.00000883  -0.00000085  -0.00000000            1.30       -0.13       -0.00
  -0.00000085   0.00000568  -0.00000000           -0.13        0.84       -0.00
  -0.00000000  -0.00000000  -0.00000308           -0.00       -0.00       -0.45


     Writing output data file /scratch/as3359/MoS2-CT/MoS2.save/
 
     init_run     :      6.09s CPU      3.36s WALL (       1 calls)
     electrons    :    218.61s CPU    112.87s WALL (       1 calls)
     forces       :      1.99s CPU      1.03s WALL (       1 calls)
     stress       :      5.76s CPU      2.95s WALL (       1 calls)

     Called by init_run:
     wfcinit      :      3.09s CPU      1.60s WALL (       1 calls)
     potinit      :      0.84s CPU      0.43s WALL (       1 calls)
     hinit0       :      1.90s CPU      1.18s WALL (       1 calls)

     Called by electrons:
     c_bands      :    171.43s CPU     87.45s WALL (      30 calls)
     sum_band     :     33.82s CPU     17.87s WALL (      30 calls)
     v_of_rho     :      2.51s CPU      1.33s WALL (      30 calls)
     newd         :      4.36s CPU      2.84s WALL (      30 calls)
     PAW_pot      :      5.64s CPU      2.90s WALL (      30 calls)
     mix_rho      :      0.76s CPU      0.40s WALL (      30 calls)

     Called by c_bands:
     init_us_2    :      5.83s CPU      2.96s WALL (    4662 calls)
     cegterg      :    159.88s CPU     81.53s WALL (    2220 calls)

     Called by *egterg:
     cdiaghg      :      3.51s CPU      1.79s WALL (    9469 calls)
     h_psi        :    139.33s CPU     71.11s WALL (    9617 calls)
     s_psi        :      3.39s CPU      1.72s WALL (    9617 calls)
     g_psi        :      1.07s CPU      0.54s WALL (    7323 calls)

     Called by h_psi:
     h_psi:calbec :      3.66s CPU      1.86s WALL (    9617 calls)
     vloc_psi     :    130.94s CPU     66.85s WALL (    9617 calls)
     add_vuspsi   :      3.61s CPU      1.84s WALL (    9617 calls)

     General routines
     calbec       :      4.80s CPU      2.46s WALL (   12207 calls)
     fft          :      1.19s CPU      0.61s WALL (     414 calls)
     ffts         :      0.13s CPU      0.06s WALL (      60 calls)
     fftw         :    132.10s CPU     67.42s WALL (  190468 calls)
     interpolate  :      0.25s CPU      0.13s WALL (      30 calls)
 
     Parallel routines
 
     PWSCF        :   3m53.31s CPU   2m 1.10s WALL

 
   This run was terminated on:  11:54:29   6Apr2022            

=------------------------------------------------------------------------------=
   JOB DONE.
=------------------------------------------------------------------------------=
