
     Program PWSCF v.6.8 starts on  6Apr2022 at 11:49:27 

     This program is part of the open-source Quantum ESPRESSO suite
     for quantum simulation of materials; please cite
         "P. Giannozzi et al., J. Phys.:Condens. Matter 21 395502 (2009);
         "P. Giannozzi et al., J. Phys.:Condens. Matter 29 465901 (2017);
         "P. Giannozzi et al., J. Chem. Phys. 152 154105 (2020);
          URL http://www.quantum-espresso.org", 
     in publications or presentations arising from this work. More details at
     http://www.quantum-espresso.org/quote

     Parallel version (MPI & OpenMP), running on       4 processor cores
     Number of MPI processes:                 2
     Threads/MPI process:                     2

     MPI processes distributed on     1 nodes
     R & G space division:  proc/nbgrp/npool/nimage =       2
     125229 MiB available memory on the printing compute node when the environment starts
 
     Reading input from MoS2.scf.65.in

     Current dimensions of program PWSCF are:
     Max number of different atomic species (ntypx) = 10
     Max number of k-points (npk) =  40000
     Max angular momentum in pseudopotentials (lmaxx) =  4
     file Mo.pbesol-spn-kjpaw_psl.1.0.0.UPF: wavefunction(s)  4S 4D renormalized
     file S.pbesol-nl-kjpaw_psl.1.0.0.UPF: wavefunction(s)  3S renormalized

     Subspace diagonalization in iterative solution of the eigenvalue problem:
     a serial algorithm will be used

 
     Parallelization info
     --------------------
     sticks:   dense  smooth     PW     G-vecs:    dense   smooth      PW
     Min         396     318     99                45645    32740    5951
     Max         397     319    100                45646    32755    5968
     Sum         793     637    199                91291    65495   11919
 
     Using Slab Decomposition
 


     bravais-lattice index     =            0
     lattice parameter (alat)  =       6.0720  a.u.
     unit-cell volume          =     924.7995 (a.u.)^3
     number of atoms/cell      =            3
     number of atomic types    =            2
     number of electrons       =        26.00
     number of Kohn-Sham states=           13
     kinetic-energy cutoff     =      65.0000  Ry
     charge density cutoff     =     325.0000  Ry
     scf convergence threshold =      1.0E-12
     mixing beta               =       0.7000
     number of iterations used =            8  plain     mixing
     Exchange-correlation= SLA  PW   PSX  PSC
                           (   1   4  10   8   0   0   0)

     celldm(1)=   6.072000  celldm(2)=   0.000000  celldm(3)=   0.000000
     celldm(4)=   0.000000  celldm(5)=   0.000000  celldm(6)=   0.000000

     crystal axes: (cart. coord. in units of alat)
               a(1) = (   0.976384  -0.000017   0.000000 )  
               a(2) = (  -0.487931   0.846187   0.000000 )  
               a(3) = (   0.000000   0.000000   5.000000 )  

     reciprocal axes: (cart. coord. in units 2 pi/alat)
               b(1) = (  1.024198  0.590577  0.000000 )  
               b(2) = (  0.000021  1.181785  0.000000 )  
               b(3) = (  0.000000  0.000000  0.200000 )  


     PseudoPot. # 1 for Mo read from file:
     /shared/home/as3359/pseudo/Mo.pbesol-spn-kjpaw_psl.1.0.0.UPF
     MD5 check sum: de57925cfc675213e43241dcc441eda8
     Pseudo is Projector augmented-wave + core cor, Zval = 14.0
     Generated using &quot;atomic&quot; code by A. Dal Corso  v.6.3
     Shape of augmentation charge: PSQ
     Using radial grid of 1229 points,  6 beta functions with: 
                l(1) =   0
                l(2) =   0
                l(3) =   1
                l(4) =   1
                l(5) =   2
                l(6) =   2
     Q(r) pseudized with 0 coefficients 


     PseudoPot. # 2 for S  read from file:
     /shared/home/as3359/pseudo/S.pbesol-nl-kjpaw_psl.1.0.0.UPF
     MD5 check sum: bf3db50ec3f960682bbc396f1aadd1dd
     Pseudo is Projector augmented-wave + core cor, Zval =  6.0
     Generated using &quot;atomic&quot; code by A. Dal Corso  v.6.3
     Shape of augmentation charge: PSQ
     Using radial grid of 1151 points,  4 beta functions with: 
                l(1) =   0
                l(2) =   0
                l(3) =   1
                l(4) =   1
     Q(r) pseudized with 0 coefficients 


     atomic species   valence    mass     pseudopotential
        Mo            14.00    95.94000     Mo( 1.00)
        S              6.00    32.06500     S ( 1.00)

     No symmetry found



   Cartesian axes

     site n.     atom                  positions (alat units)
         1           Mo  tau(   1) = (   0.0000000   0.0000000   1.6880765  )
         2           S   tau(   2) = (   0.4883508   0.2821722   2.1737857  )
         3           S   tau(   3) = (   0.4883508   0.2821722   1.2023670  )

     number of k points=    74
                       cart. coord. in units 2pi/alat
        k(    1) = (   0.0000000   0.0000000   0.0000000), wk =   0.0138889
        k(    2) = (   0.0000017   0.0984820   0.0000000), wk =   0.0277778
        k(    3) = (   0.0000035   0.1969641   0.0000000), wk =   0.0277778
        k(    4) = (   0.0000052   0.2954461   0.0000000), wk =   0.0277778
        k(    5) = (   0.0000070   0.3939282   0.0000000), wk =   0.0277778
        k(    6) = (   0.0000087   0.4924102   0.0000000), wk =   0.0277778
        k(    7) = (  -0.0000105  -0.5908923   0.0000000), wk =   0.0138889
        k(    8) = (   0.0853498   0.0492147   0.0000000), wk =   0.0277778
        k(    9) = (   0.0853516   0.1476968   0.0000000), wk =   0.0277778
        k(   10) = (   0.0853533   0.2461788   0.0000000), wk =   0.0277778
        k(   11) = (   0.0853550   0.3446609   0.0000000), wk =   0.0277778
        k(   12) = (   0.0853568   0.4431429   0.0000000), wk =   0.0277778
        k(   13) = (   0.0853585   0.5416249   0.0000000), wk =   0.0277778
        k(   14) = (   0.0853394  -0.5416775   0.0000000), wk =   0.0277778
        k(   15) = (   0.0853411  -0.4431955   0.0000000), wk =   0.0277778
        k(   16) = (   0.0853428  -0.3447135   0.0000000), wk =   0.0277778
        k(   17) = (   0.0853446  -0.2462314   0.0000000), wk =   0.0277778
        k(   18) = (   0.0853463  -0.1477494   0.0000000), wk =   0.0277778
        k(   19) = (   0.0853481  -0.0492673   0.0000000), wk =   0.0277778
        k(   20) = (   0.1706996   0.0984294   0.0000000), wk =   0.0277778
        k(   21) = (   0.1707014   0.1969115   0.0000000), wk =   0.0277778
        k(   22) = (   0.1707031   0.2953935   0.0000000), wk =   0.0277778
        k(   23) = (   0.1707049   0.3938756   0.0000000), wk =   0.0277778
        k(   24) = (   0.1707066   0.4923576   0.0000000), wk =   0.0277778
        k(   25) = (   0.1707083   0.5908397   0.0000000), wk =   0.0277778
        k(   26) = (   0.1706892  -0.4924628   0.0000000), wk =   0.0277778
        k(   27) = (   0.1706909  -0.3939808   0.0000000), wk =   0.0277778
        k(   28) = (   0.1706927  -0.2954987   0.0000000), wk =   0.0277778
        k(   29) = (   0.1706944  -0.1970167   0.0000000), wk =   0.0277778
        k(   30) = (   0.1706961  -0.0985346   0.0000000), wk =   0.0277778
        k(   31) = (   0.1706979  -0.0000526   0.0000000), wk =   0.0277778
        k(   32) = (   0.2560494   0.1476442   0.0000000), wk =   0.0277778
        k(   33) = (   0.2560512   0.2461262   0.0000000), wk =   0.0277778
        k(   34) = (   0.2560529   0.3446082   0.0000000), wk =   0.0277778
        k(   35) = (   0.2560547   0.4430903   0.0000000), wk =   0.0277778
        k(   36) = (   0.2560564   0.5415723   0.0000000), wk =   0.0277778
        k(   37) = (   0.2560582   0.6400544   0.0000000), wk =   0.0277778
        k(   38) = (   0.2560390  -0.4432481   0.0000000), wk =   0.0277778
        k(   39) = (   0.2560407  -0.3447661   0.0000000), wk =   0.0277778
        k(   40) = (   0.2560425  -0.2462840   0.0000000), wk =   0.0277778
        k(   41) = (   0.2560442  -0.1478020   0.0000000), wk =   0.0277778
        k(   42) = (   0.2560460  -0.0493199   0.0000000), wk =   0.0277778
        k(   43) = (   0.2560477   0.0491621   0.0000000), wk =   0.0277778
        k(   44) = (   0.3413993   0.1968589   0.0000000), wk =   0.0277778
        k(   45) = (   0.3414010   0.2953409   0.0000000), wk =   0.0277778
        k(   46) = (   0.3414027   0.3938230   0.0000000), wk =   0.0277778
        k(   47) = (   0.3414045   0.4923050   0.0000000), wk =   0.0277778
        k(   48) = (   0.3414062   0.5907871   0.0000000), wk =   0.0277778
        k(   49) = (   0.3414080   0.6892691   0.0000000), wk =   0.0277778
        k(   50) = (   0.3413888  -0.3940334   0.0000000), wk =   0.0277778
        k(   51) = (   0.3413905  -0.2955513   0.0000000), wk =   0.0277778
        k(   52) = (   0.3413923  -0.1970693   0.0000000), wk =   0.0277778
        k(   53) = (   0.3413940  -0.0985872   0.0000000), wk =   0.0277778
        k(   54) = (   0.3413958  -0.0001052   0.0000000), wk =   0.0277778
        k(   55) = (   0.3413975   0.0983768   0.0000000), wk =   0.0277778
        k(   56) = (   0.4267491   0.2460736   0.0000000), wk =   0.0277778
        k(   57) = (   0.4267508   0.3445556   0.0000000), wk =   0.0277778
        k(   58) = (   0.4267526   0.4430377   0.0000000), wk =   0.0277778
        k(   59) = (   0.4267543   0.5415197   0.0000000), wk =   0.0277778
        k(   60) = (   0.4267560   0.6400018   0.0000000), wk =   0.0277778
        k(   61) = (   0.4267578   0.7384838   0.0000000), wk =   0.0277778
        k(   62) = (   0.4267386  -0.3448187   0.0000000), wk =   0.0277778
        k(   63) = (   0.4267404  -0.2463366   0.0000000), wk =   0.0277778
        k(   64) = (   0.4267421  -0.1478546   0.0000000), wk =   0.0277778
        k(   65) = (   0.4267438  -0.0493725   0.0000000), wk =   0.0277778
        k(   66) = (   0.4267456   0.0491095   0.0000000), wk =   0.0277778
        k(   67) = (   0.4267473   0.1475916   0.0000000), wk =   0.0277778
        k(   68) = (  -0.5120989  -0.2952883   0.0000000), wk =   0.0138889
        k(   69) = (  -0.5120971  -0.1968063   0.0000000), wk =   0.0277778
        k(   70) = (  -0.5120954  -0.0983242   0.0000000), wk =   0.0277778
        k(   71) = (  -0.5120937   0.0001578   0.0000000), wk =   0.0277778
        k(   72) = (  -0.5120919   0.0986398   0.0000000), wk =   0.0277778
        k(   73) = (  -0.5120902   0.1971219   0.0000000), wk =   0.0277778
        k(   74) = (  -0.5121093  -0.8861806   0.0000000), wk =   0.0138889

     Dense  grid:    91291 G-vectors     FFT dimensions: (  36,  36, 180)

     Smooth grid:    65495 G-vectors     FFT dimensions: (  32,  32, 160)

     Estimated max dynamical RAM per process >     234.17 MB

     Estimated total dynamical RAM >     468.34 MB

     Initial potential from superposition of free atoms

     starting charge   25.99914, renormalised to   26.00000

     negative rho (up, down):  4.753E-04 0.000E+00
     Starting wfcs are   18 randomized atomic wfcs
     Checking if some PAW data can be deallocated... 

     total cpu time spent up to now is        2.7 secs

     Self-consistent Calculation

     iteration #  1     ecut=    65.00 Ry     beta= 0.70
     Davidson diagonalization with overlap
     ethr =  1.00E-02,  avg # of iterations =  2.0

     Threshold (ethr) on eigenvalues was too large:
     Diagonalizing with lowered threshold

     Davidson diagonalization with overlap
     ethr =  3.44E-04,  avg # of iterations =  3.9

     negative rho (up, down):  5.453E-04 0.000E+00

     total cpu time spent up to now is        8.0 secs

     total energy              =    -489.69289411 Ry
     estimated scf accuracy    <       0.14224254 Ry

     iteration #  2     ecut=    65.00 Ry     beta= 0.70
     Davidson diagonalization with overlap
     ethr =  5.47E-04,  avg # of iterations =  5.2

     negative rho (up, down):  5.267E-04 0.000E+00

     total cpu time spent up to now is       11.4 secs

     total energy              =    -489.64895442 Ry
     estimated scf accuracy    <       0.55849764 Ry

     iteration #  3     ecut=    65.00 Ry     beta= 0.70
     Davidson diagonalization with overlap
     ethr =  5.47E-04,  avg # of iterations =  5.2

     negative rho (up, down):  5.229E-04 0.000E+00

     total cpu time spent up to now is       14.7 secs

     total energy              =    -489.75190935 Ry
     estimated scf accuracy    <       0.03225150 Ry

     iteration #  4     ecut=    65.00 Ry     beta= 0.70
     Davidson diagonalization with overlap
     ethr =  1.24E-04,  avg # of iterations =  2.6

     negative rho (up, down):  5.355E-04 0.000E+00

     total cpu time spent up to now is       17.2 secs

     total energy              =    -489.75425113 Ry
     estimated scf accuracy    <       0.00444020 Ry

     iteration #  5     ecut=    65.00 Ry     beta= 0.70
     Davidson diagonalization with overlap
     ethr =  1.71E-05,  avg # of iterations =  4.9

     negative rho (up, down):  5.386E-04 0.000E+00

     total cpu time spent up to now is       20.4 secs

     total energy              =    -489.75681268 Ry
     estimated scf accuracy    <       0.00400216 Ry

     iteration #  6     ecut=    65.00 Ry     beta= 0.70
     Davidson diagonalization with overlap
     ethr =  1.54E-05,  avg # of iterations =  1.0

     negative rho (up, down):  5.421E-04 0.000E+00

     total cpu time spent up to now is       22.5 secs

     total energy              =    -489.75615237 Ry
     estimated scf accuracy    <       0.00280600 Ry

     iteration #  7     ecut=    65.00 Ry     beta= 0.70
     Davidson diagonalization with overlap
     ethr =  1.08E-05,  avg # of iterations =  2.7

     negative rho (up, down):  5.439E-04 0.000E+00

     total cpu time spent up to now is       24.9 secs

     total energy              =    -489.75641080 Ry
     estimated scf accuracy    <       0.00032020 Ry

     iteration #  8     ecut=    65.00 Ry     beta= 0.70
     Davidson diagonalization with overlap
     ethr =  1.23E-06,  avg # of iterations =  4.6

     negative rho (up, down):  5.464E-04 0.000E+00

     total cpu time spent up to now is       27.9 secs

     total energy              =    -489.75650751 Ry
     estimated scf accuracy    <       0.00003244 Ry

     iteration #  9     ecut=    65.00 Ry     beta= 0.70
     Davidson diagonalization with overlap
     ethr =  1.25E-07,  avg # of iterations =  5.1

     negative rho (up, down):  5.460E-04 0.000E+00

     total cpu time spent up to now is       31.4 secs

     total energy              =    -489.75651407 Ry
     estimated scf accuracy    <       0.00012151 Ry

     iteration # 10     ecut=    65.00 Ry     beta= 0.70
     Davidson diagonalization with overlap
     ethr =  1.25E-07,  avg # of iterations =  2.9

     negative rho (up, down):  5.458E-04 0.000E+00

     total cpu time spent up to now is       33.9 secs

     total energy              =    -489.75649808 Ry
     estimated scf accuracy    <       0.00006349 Ry

     iteration # 11     ecut=    65.00 Ry     beta= 0.70
     Davidson diagonalization with overlap
     ethr =  1.25E-07,  avg # of iterations =  4.0

     negative rho (up, down):  5.461E-04 0.000E+00

     total cpu time spent up to now is       36.8 secs

     total energy              =    -489.75650936 Ry
     estimated scf accuracy    <       0.00001154 Ry

     iteration # 12     ecut=    65.00 Ry     beta= 0.70
     Davidson diagonalization with overlap
     ethr =  4.44E-08,  avg # of iterations =  2.9

     negative rho (up, down):  5.461E-04 0.000E+00

     total cpu time spent up to now is       39.4 secs

     total energy              =    -489.75651066 Ry
     estimated scf accuracy    <       0.00000107 Ry

     iteration # 13     ecut=    65.00 Ry     beta= 0.70
     Davidson diagonalization with overlap
     ethr =  4.12E-09,  avg # of iterations =  4.9

     negative rho (up, down):  5.462E-04 0.000E+00

     total cpu time spent up to now is       42.5 secs

     total energy              =    -489.75651087 Ry
     estimated scf accuracy    <       0.00000102 Ry

     iteration # 14     ecut=    65.00 Ry     beta= 0.70
     Davidson diagonalization with overlap
     ethr =  3.92E-09,  avg # of iterations =  2.1

     negative rho (up, down):  5.462E-04 0.000E+00

     total cpu time spent up to now is       44.9 secs

     total energy              =    -489.75651091 Ry
     estimated scf accuracy    <       0.00000014 Ry

     iteration # 15     ecut=    65.00 Ry     beta= 0.70
     Davidson diagonalization with overlap
     ethr =  5.25E-10,  avg # of iterations =  5.4

     negative rho (up, down):  5.462E-04 0.000E+00

     total cpu time spent up to now is       48.5 secs

     total energy              =    -489.75651097 Ry
     estimated scf accuracy    <       0.00000043 Ry

     iteration # 16     ecut=    65.00 Ry     beta= 0.70
     Davidson diagonalization with overlap
     ethr =  5.25E-10,  avg # of iterations =  2.7

     negative rho (up, down):  5.462E-04 0.000E+00

     total cpu time spent up to now is       51.0 secs

     total energy              =    -489.75651096 Ry
     estimated scf accuracy    <       0.00000015 Ry

     iteration # 17     ecut=    65.00 Ry     beta= 0.70
     Davidson diagonalization with overlap
     ethr =  5.25E-10,  avg # of iterations =  3.4

     negative rho (up, down):  5.462E-04 0.000E+00

     total cpu time spent up to now is       53.6 secs

     total energy              =    -489.75651098 Ry
     estimated scf accuracy    <       0.00000001 Ry

     iteration # 18     ecut=    65.00 Ry     beta= 0.70
     Davidson diagonalization with overlap
     ethr =  3.90E-11,  avg # of iterations =  4.7

     negative rho (up, down):  5.462E-04 0.000E+00

     total cpu time spent up to now is       56.7 secs

     total energy              =    -489.75651098 Ry
     estimated scf accuracy    <       0.00000003 Ry

     iteration # 19     ecut=    65.00 Ry     beta= 0.70
     Davidson diagonalization with overlap
     ethr =  3.90E-11,  avg # of iterations =  1.0

     negative rho (up, down):  5.462E-04 0.000E+00

     total cpu time spent up to now is       58.8 secs

     total energy              =    -489.75651098 Ry
     estimated scf accuracy    <       0.00000002 Ry

     iteration # 20     ecut=    65.00 Ry     beta= 0.70
     Davidson diagonalization with overlap
     ethr =  3.90E-11,  avg # of iterations =  3.5

     negative rho (up, down):  5.462E-04 0.000E+00

     total cpu time spent up to now is       61.5 secs

     total energy              =    -489.75651098 Ry
     estimated scf accuracy    <          9.9E-12 Ry

     iteration # 21     ecut=    65.00 Ry     beta= 0.70
     Davidson diagonalization with overlap
     ethr =  1.00E-13,  avg # of iterations = 10.5

     negative rho (up, down):  5.462E-04 0.000E+00

     total cpu time spent up to now is       67.6 secs

     total energy              =    -489.75651098 Ry
     estimated scf accuracy    <          8.2E-09 Ry

     iteration # 22     ecut=    65.00 Ry     beta= 0.70
     Davidson diagonalization with overlap
     ethr =  1.00E-13,  avg # of iterations =  8.3

     negative rho (up, down):  5.462E-04 0.000E+00

     total cpu time spent up to now is       72.4 secs

     total energy              =    -489.75651098 Ry
     estimated scf accuracy    <          1.1E-09 Ry

     iteration # 23     ecut=    65.00 Ry     beta= 0.70
     Davidson diagonalization with overlap
     ethr =  1.00E-13,  avg # of iterations =  6.4

     negative rho (up, down):  5.462E-04 0.000E+00

     total cpu time spent up to now is       76.4 secs

     total energy              =    -489.75651098 Ry
     estimated scf accuracy    <          3.8E-11 Ry

     iteration # 24     ecut=    65.00 Ry     beta= 0.70
     Davidson diagonalization with overlap
     ethr =  1.00E-13,  avg # of iterations =  2.1

     negative rho (up, down):  5.462E-04 0.000E+00

     total cpu time spent up to now is       78.7 secs

     total energy              =    -489.75651098 Ry
     estimated scf accuracy    <          1.2E-11 Ry

     iteration # 25     ecut=    65.00 Ry     beta= 0.70
     Davidson diagonalization with overlap
     ethr =  1.00E-13,  avg # of iterations =  2.3

     negative rho (up, down):  5.462E-04 0.000E+00

     total cpu time spent up to now is       81.1 secs

     End of self-consistent calculation

          k = 0.0000 0.0000 0.0000 (  8223 PWs)   bands (ev):

   -60.3470 -34.5550 -34.2873 -34.2859 -13.8558 -12.5043  -5.4150  -2.2353
    -2.2266  -1.4946  -1.0742  -1.0677   0.2782

          k = 0.0000 0.0985 0.0000 (  8201 PWs)   bands (ev):

   -60.3439 -34.5491 -34.3173 -34.2927 -13.7460 -12.4589  -5.2910  -2.4753
    -2.1121  -1.9591  -1.2411  -0.7783   0.2359

          k = 0.0000 0.1970 0.0000 (  8209 PWs)   bands (ev):

   -60.3356 -34.5328 -34.3986 -34.3112 -13.4332 -12.3300  -4.9804  -3.0237
    -2.6268  -1.7917  -1.6477  -0.7047   0.0208

          k = 0.0000 0.2954 0.0000 (  8227 PWs)   bands (ev):

   -60.3242 -34.5105 -34.5080 -34.3362 -12.9686 -12.1400  -4.7604  -3.4851
    -3.3115  -2.1012  -1.3432  -0.9778  -0.4121

          k = 0.0000 0.3939 0.0000 (  8187 PWs)   bands (ev):

   -60.3127 -34.6156 -34.4881 -34.3611 -12.4434 -11.9301  -5.0174  -3.9464
    -3.5894  -2.4817  -1.3013  -0.8977  -0.6658

          k = 0.0000 0.4924 0.0000 (  8186 PWs)   bands (ev):

   -60.3043 -34.6933 -34.4717 -34.3793 -12.0015 -11.7604  -5.4153  -4.4124
    -3.7143  -2.7283  -1.5052  -0.5939  -0.4746

          k =-0.0000-0.5909 0.0000 (  8166 PWs)   bands (ev):

   -60.3012 -34.7215 -34.4657 -34.3859 -11.8226 -11.6942  -5.5878  -4.5853
    -3.8037  -2.8132  -1.5704  -0.4925  -0.2957

          k = 0.0853 0.0492 0.0000 (  8200 PWs)   bands (ev):

   -60.3439 -34.5491 -34.3165 -34.2935 -13.7459 -12.4588  -5.2910  -2.4719
    -2.1161  -1.9568  -1.2465  -0.7755   0.2363

          k = 0.0854 0.1477 0.0000 (  8221 PWs)   bands (ev):

   -60.3382 -34.5380 -34.3711 -34.3071 -13.5346 -12.3716  -5.0698  -2.8617
    -2.4010  -1.9040  -1.6505  -0.5829   0.1080

          k = 0.0854 0.2462 0.0000 (  8214 PWs)   bands (ev):

   -60.3283 -34.5187 -34.4626 -34.3327 -13.1448 -12.2109  -4.7715  -3.3496
    -2.9641  -2.2314  -1.5744  -0.6206  -0.2252

          k = 0.0854 0.3447 0.0000 (  8203 PWs)   bands (ev):

   -60.3169 -34.5665 -34.4963 -34.3623 -12.6460 -12.0074  -4.7997  -3.6385
    -3.5313  -2.6173  -1.3417  -0.9384  -0.5037

          k = 0.0854 0.4431 0.0000 (  8163 PWs)   bands (ev):

   -60.3069 -34.6551 -34.4769 -34.3879 -12.1530 -11.8113  -5.1616  -4.2553
    -3.5846  -2.7879  -1.2955  -1.2415  -0.3616

          k = 0.0854 0.5416 0.0000 (  8176 PWs)   bands (ev):

   -60.3012 -34.7057 -34.4657 -34.4026 -11.8307 -11.6874  -5.4423  -4.6167
    -3.7361  -2.8389  -1.5181  -1.0966  -0.1141

          k = 0.0853-0.5417 0.0000 (  8180 PWs)   bands (ev):

   -60.3012 -34.7058 -34.4657 -34.4026 -11.8305 -11.6874  -5.4425  -4.6166
    -3.7361  -2.8395  -1.5176  -1.0957  -0.1152

          k = 0.0853-0.4432 0.0000 (  8163 PWs)   bands (ev):

   -60.3069 -34.6552 -34.4769 -34.3879 -12.1526 -11.8112  -5.1620  -4.2551
    -3.5847  -2.7890  -1.2945  -1.2394  -0.3639

          k = 0.0853-0.3447 0.0000 (  8199 PWs)   bands (ev):

   -60.3169 -34.5666 -34.4963 -34.3624 -12.6456 -12.0073  -4.7998  -3.6385
    -3.5314  -2.6180  -1.3399  -0.9375  -0.5060

          k = 0.0853-0.2462 0.0000 (  8214 PWs)   bands (ev):

   -60.3283 -34.5187 -34.4627 -34.3328 -13.1445 -12.2108  -4.7713  -3.3490
    -2.9650  -2.2308  -1.5750  -0.6202  -0.2261

          k = 0.0853-0.1477 0.0000 (  8221 PWs)   bands (ev):

   -60.3382 -34.5379 -34.3710 -34.3074 -13.5343 -12.3715  -5.0696  -2.8596
    -2.4020  -1.9067  -1.6495  -0.5829   0.1079

          k = 0.0853-0.0493 0.0000 (  8199 PWs)   bands (ev):

   -60.3439 -34.5490 -34.3162 -34.2939 -13.7458 -12.4588  -5.2909  -2.4688
    -2.1195  -1.9572  -1.2462  -0.7755   0.2364

          k = 0.1707 0.0984 0.0000 (  8209 PWs)   bands (ev):

   -60.3355 -34.5328 -34.3979 -34.3120 -13.4329 -12.3295  -4.9802  -3.0211
    -2.6240  -1.7956  -1.6534  -0.7033   0.0225

          k = 0.1707 0.1969 0.0000 (  8216 PWs)   bands (ev):

   -60.3283 -34.5187 -34.4623 -34.3332 -13.1446 -12.2105  -4.7715  -3.3481
    -2.9618  -2.2351  -1.5765  -0.6205  -0.2240

          k = 0.1707 0.2954 0.0000 (  8203 PWs)   bands (ev):

   -60.3184 -34.5411 -34.4993 -34.3704 -12.7179 -12.0336  -4.6903  -3.4877
    -3.3889  -2.8939  -1.5792  -0.6553  -0.4352

          k = 0.1707 0.3939 0.0000 (  8178 PWs)   bands (ev):

   -60.3085 -34.6150 -34.4799 -34.4116 -12.2406 -11.8358  -4.8892  -4.1152
    -3.3899  -3.0085  -1.9004  -0.9779  -0.3643

          k = 0.1707 0.4924 0.0000 (  8154 PWs)   bands (ev):

   -60.3011 -34.6672 -34.4657 -34.4430 -11.8466 -11.6737  -5.1019  -4.6745
    -3.5282  -2.9133  -2.0147  -1.3746  -0.1100

          k = 0.1707 0.5908 0.0000 (  8182 PWs)   bands (ev):

   -60.2985 -34.6861 -34.4604 -34.4546 -11.6897 -11.6098  -5.1819  -4.8782
    -3.6699  -2.8318  -1.9990  -1.5668   0.0710

          k = 0.1707-0.4925 0.0000 (  8154 PWs)   bands (ev):

   -60.3011 -34.6674 -34.4657 -34.4429 -11.8461 -11.6736  -5.1026  -4.6743
    -3.5285  -2.9144  -2.0130  -1.3737  -0.1116

          k = 0.1707-0.3940 0.0000 (  8178 PWs)   bands (ev):

   -60.3084 -34.6153 -34.4799 -34.4116 -12.2399 -11.8356  -4.8899  -4.1150
    -3.3900  -3.0099  -1.8983  -0.9768  -0.3667

          k = 0.1707-0.2955 0.0000 (  8197 PWs)   bands (ev):

   -60.3184 -34.5413 -34.4993 -34.3706 -12.7171 -12.0334  -4.6904  -3.4870
    -3.3890  -2.8947  -1.5786  -0.6546  -0.4375

          k = 0.1707-0.1970 0.0000 (  8218 PWs)   bands (ev):

   -60.3283 -34.5186 -34.4623 -34.3335 -13.1440 -12.2103  -4.7711  -3.3464
    -2.9625  -2.2352  -1.5787  -0.6200  -0.2246

          k = 0.1707-0.0985 0.0000 (  8209 PWs)   bands (ev):

   -60.3355 -34.5327 -34.3977 -34.3124 -13.4326 -12.3294  -4.9799  -3.0187
    -2.6242  -1.7987  -1.6541  -0.7025   0.0226

          k = 0.1707-0.0001 0.0000 (  8219 PWs)   bands (ev):

   -60.3382 -34.5379 -34.3704 -34.3081 -13.5341 -12.3711  -5.0694  -2.8577
    -2.4001  -1.9096  -1.6531  -0.5820   0.1089

          k = 0.2560 0.1476 0.0000 (  8221 PWs)   bands (ev):

   -60.3241 -34.5104 -34.5075 -34.3372 -12.9679 -12.1388  -4.7604  -3.4828
    -3.3094  -2.1075  -1.3471  -0.9769  -0.4093

          k = 0.2561 0.2461 0.0000 (  8199 PWs)   bands (ev):

   -60.3168 -34.5661 -34.4963 -34.3631 -12.6454 -12.0063  -4.7996  -3.6368
    -3.5292  -2.6221  -1.3444  -0.9382  -0.5022

          k = 0.2561 0.3446 0.0000 (  8180 PWs)   bands (ev):

   -60.3084 -34.6148 -34.4799 -34.4120 -12.2403 -11.8351  -4.8889  -4.1150
    -3.3888  -3.0103  -1.9018  -0.9778  -0.3639

          k = 0.2561 0.4431 0.0000 (  8168 PWs)   bands (ev):

   -60.3011 -34.6414 -34.4700 -34.4657 -11.8542 -11.6663  -4.8963  -4.7015
    -3.2624  -2.9587  -2.6213  -1.2856  -0.1380

          k = 0.2561 0.5416 0.0000 (  8147 PWs)   bands (ev):

   -60.2969 -34.6469 -34.5132 -34.4574 -11.6129 -11.5576  -5.0674  -4.7714
    -3.5333  -2.8890  -2.7493  -1.6402   0.1793

          k = 0.2561 0.6401 0.0000 (  8146 PWs)   bands (ev):

   -60.2969 -34.6471 -34.5131 -34.4574 -11.6125 -11.5575  -5.0674  -4.7720
    -3.5337  -2.8879  -2.7499  -1.6398   0.1785

          k = 0.2560-0.4432 0.0000 (  8166 PWs)   bands (ev):

   -60.3011 -34.6416 -34.4700 -34.4656 -11.8533 -11.6660  -4.8974  -4.7014
    -3.2628  -2.9600  -2.6195  -1.2850  -0.1396

          k = 0.2560-0.3448 0.0000 (  8180 PWs)   bands (ev):

   -60.3084 -34.6150 -34.4798 -34.4122 -12.2392 -11.8347  -4.8895  -4.1148
    -3.3876  -3.0120  -1.9014  -0.9771  -0.3661

          k = 0.2560-0.2463 0.0000 (  8199 PWs)   bands (ev):

   -60.3168 -34.5661 -34.4962 -34.3635 -12.6444 -12.0059  -4.7996  -3.6366
    -3.5273  -2.6237  -1.3453  -0.9376  -0.5042

          k = 0.2560-0.1478 0.0000 (  8219 PWs)   bands (ev):

   -60.3241 -34.5104 -34.5074 -34.3376 -12.9672 -12.1385  -4.7601  -3.4806
    -3.3093  -2.1090  -1.3499  -0.9762  -0.4094

          k = 0.2560-0.0493 0.0000 (  8218 PWs)   bands (ev):

   -60.3283 -34.5186 -34.4622 -34.3339 -13.1436 -12.2097  -4.7709  -3.3467
    -2.9628  -2.2358  -1.5790  -0.6199  -0.2240

          k = 0.2560 0.0492 0.0000 (  8218 PWs)   bands (ev):

   -60.3283 -34.5186 -34.4623 -34.3336 -13.1439 -12.2098  -4.7711  -3.3479
    -2.9630  -2.2352  -1.5774  -0.6201  -0.2242

          k = 0.3414 0.1969 0.0000 (  8187 PWs)   bands (ev):

   -60.3126 -34.6153 -34.4880 -34.3622 -12.4423 -11.9281  -5.0173  -3.9459
    -3.5876  -2.4884  -1.2997  -0.9021  -0.6625

          k = 0.3414 0.2953 0.0000 (  8161 PWs)   bands (ev):

   -60.3068 -34.6547 -34.4768 -34.3889 -12.1520 -11.8094  -5.1608  -4.2555
    -3.5835  -2.7929  -1.2944  -1.2438  -0.3607

          k = 0.3414 0.3938 0.0000 (  8154 PWs)   bands (ev):

   -60.3011 -34.6670 -34.4656 -34.4437 -11.8459 -11.6722  -5.1010  -4.6756
    -3.5277  -2.9159  -2.0171  -1.3736  -0.1088

          k = 0.3414 0.4923 0.0000 (  8149 PWs)   bands (ev):

   -60.2969 -34.6467 -34.5136 -34.4574 -11.6125 -11.5568  -5.0683  -4.7709
    -3.5329  -2.8905  -2.7506  -1.6393   0.1798

          k = 0.3414 0.5908 0.0000 (  8148 PWs)   bands (ev):

   -60.2953 -34.6144 -34.5643 -34.4544 -11.5251 -11.5106  -5.2241  -4.3610
    -3.8346  -3.2109  -2.5880  -1.8350   0.3750

          k = 0.3414 0.6893 0.0000 (  8151 PWs)   bands (ev):

   -60.2968 -34.6469 -34.5137 -34.4573 -11.6116 -11.5565  -5.0684  -4.7716
    -3.5324  -2.8906  -2.7514  -1.6392   0.1793

          k = 0.3414-0.3940 0.0000 (  8154 PWs)   bands (ev):

   -60.3010 -34.6672 -34.4655 -34.4440 -11.8446 -11.6717  -5.1016  -4.6755
    -3.5265  -2.9175  -2.0176  -1.3733  -0.1099

          k = 0.3414-0.2956 0.0000 (  8161 PWs)   bands (ev):

   -60.3068 -34.6548 -34.4767 -34.3893 -12.1506 -11.8088  -5.1610  -4.2552
    -3.5817  -2.7953  -1.2939  -1.2445  -0.3627

          k = 0.3414-0.1971 0.0000 (  8187 PWs)   bands (ev):

   -60.3125 -34.6152 -34.4879 -34.3627 -12.4412 -11.9276  -5.0171  -3.9456
    -3.5854  -2.4905  -1.2994  -0.9048  -0.6628

          k = 0.3414-0.0986 0.0000 (  8199 PWs)   bands (ev):

   -60.3168 -34.5662 -34.4962 -34.3637 -12.6439 -12.0053  -4.8000  -3.6378
    -3.5280  -2.6234  -1.3436  -0.9374  -0.5052

          k = 0.3414-0.0001 0.0000 (  8197 PWs)   bands (ev):

   -60.3183 -34.5412 -34.4992 -34.3711 -12.7163 -12.0321  -4.6908  -3.4875
    -3.3904  -2.8955  -1.5772  -0.6544  -0.4381

          k = 0.3414 0.0984 0.0000 (  8197 PWs)   bands (ev):

   -60.3168 -34.5663 -34.4962 -34.3633 -12.6445 -12.0056  -4.8002  -3.6381
    -3.5300  -2.6224  -1.3409  -0.9371  -0.5055

          k = 0.4267 0.2461 0.0000 (  8178 PWs)   bands (ev):

   -60.3042 -34.6931 -34.4716 -34.3804 -12.0002 -11.7577  -5.4144  -4.4134
    -3.7137  -2.7352  -1.5026  -0.5993  -0.4709

          k = 0.4268 0.3446 0.0000 (  8176 PWs)   bands (ev):

   -60.3011 -34.7055 -34.4655 -34.4037 -11.8294 -11.6848  -5.4410  -4.6183
    -3.7361  -2.8445  -1.5157  -1.0995  -0.1127

          k = 0.4268 0.4430 0.0000 (  8174 PWs)   bands (ev):

   -60.2984 -34.6859 -34.4604 -34.4555 -11.6886 -11.6076  -5.1812  -4.8803
    -3.6699  -2.8353  -2.0014  -1.5647   0.0719

          k = 0.4268 0.5415 0.0000 (  8147 PWs)   bands (ev):

   -60.2968 -34.6470 -34.5136 -34.4573 -11.6117 -11.5561  -5.0691  -4.7728
    -3.5327  -2.8890  -2.7517  -1.6383   0.1778

          k = 0.4268 0.6400 0.0000 (  8150 PWs)   bands (ev):

   -60.2968 -34.6470 -34.5138 -34.4573 -11.6112 -11.5559  -5.0692  -4.7728
    -3.5319  -2.8901  -2.7518  -1.6386   0.1780

          k = 0.4268 0.7385 0.0000 (  8174 PWs)   bands (ev):

   -60.2984 -34.6860 -34.4603 -34.4558 -11.6874 -11.6071  -5.1813  -4.8804
    -3.6689  -2.8363  -2.0030  -1.5650   0.0720

          k = 0.4267-0.3448 0.0000 (  8176 PWs)   bands (ev):

   -60.3010 -34.7056 -34.4654 -34.4042 -11.8278 -11.6841  -5.4411  -4.6181
    -3.7349  -2.8468  -1.5155  -1.1010  -0.1134

          k = 0.4267-0.2463 0.0000 (  8178 PWs)   bands (ev):

   -60.3041 -34.6931 -34.4714 -34.3810 -11.9987 -11.7570  -5.4142  -4.4131
    -3.7122  -2.7378  -1.5024  -0.6022  -0.4706

          k = 0.4267-0.1479 0.0000 (  8161 PWs)   bands (ev):

   -60.3067 -34.6550 -34.4767 -34.3894 -12.1502 -11.8083  -5.1619  -4.2562
    -3.5817  -2.7952  -1.2935  -1.2431  -0.3643

          k = 0.4267-0.0494 0.0000 (  8180 PWs)   bands (ev):

   -60.3083 -34.6152 -34.4798 -34.4125 -12.2383 -11.8335  -4.8910  -4.1170
    -3.3882  -3.0119  -1.8987  -0.9766  -0.3684

          k = 0.4267 0.0491 0.0000 (  8178 PWs)   bands (ev):

   -60.3083 -34.6152 -34.4798 -34.4123 -12.2387 -11.8337  -4.8911  -4.1170
    -3.3896  -3.0116  -1.8970  -0.9762  -0.3685

          k = 0.4267 0.1476 0.0000 (  8157 PWs)   bands (ev):

   -60.3068 -34.6550 -34.4768 -34.3889 -12.1513 -11.8088  -5.1621  -4.2563
    -3.5836  -2.7940  -1.2929  -1.2402  -0.3647

          k =-0.5121-0.2953 0.0000 (  8166 PWs)   bands (ev):

   -60.3011 -34.7213 -34.4655 -34.3871 -11.8211 -11.6911  -5.5865  -4.5869
    -3.8038  -2.8202  -1.5673  -0.4983  -0.2918

          k =-0.5121-0.1968 0.0000 (  8178 PWs)   bands (ev):

   -60.3011 -34.7056 -34.4655 -34.4037 -11.8291 -11.6846  -5.4417  -4.6186
    -3.7360  -2.8451  -1.5149  -1.0981  -0.1147

          k =-0.5121-0.0983 0.0000 (  8154 PWs)   bands (ev):

   -60.3010 -34.6673 -34.4655 -34.4437 -11.8448 -11.6713  -5.1032  -4.6767
    -3.5277  -2.9173  -2.0140  -1.3720  -0.1125

          k =-0.5121 0.0002 0.0000 (  8166 PWs)   bands (ev):

   -60.3010 -34.6417 -34.4703 -34.4655 -11.8523 -11.6645  -4.8992  -4.7036
    -3.2629  -2.9609  -2.6177  -1.2840  -0.1419

          k =-0.5121 0.0986 0.0000 (  8154 PWs)   bands (ev):

   -60.3010 -34.6673 -34.4655 -34.4441 -11.8440 -11.6709  -5.1031  -4.6768
    -3.5263  -2.9177  -2.0162  -1.3727  -0.1121

          k =-0.5121 0.1971 0.0000 (  8178 PWs)   bands (ev):

   -60.3010 -34.7056 -34.4654 -34.4042 -11.8277 -11.6839  -5.4415  -4.6184
    -3.7348  -2.8469  -1.5153  -1.1005  -0.1143

          k =-0.5121-0.8862 0.0000 (  8166 PWs)   bands (ev):

   -60.3010 -34.7214 -34.4654 -34.3876 -11.8194 -11.6904  -5.5863  -4.5866
    -3.8027  -2.8228  -1.5672  -0.5014  -0.2911

     highest occupied level (ev):     0.3750

!    total energy              =    -489.75651098 Ry

     total all-electron energy =     -9688.214356 Ry
     estimated scf accuracy    <          3.8E-13 Ry

     The total energy is the sum of the following terms:
     one-electron contribution =    -813.90111156 Ry
     hartree contribution      =     410.77114982 Ry
     xc contribution           =     -29.52443527 Ry
     ewald contribution        =     255.78841210 Ry
     one-center paw contrib.   =    -312.89052607 Ry

     convergence has been achieved in  25 iterations

     negative rho (up, down):  5.462E-04 0.000E+00

     Forces acting on atoms (cartesian axes, Ry/au):

     atom    1 type  1   force =     0.00026914    0.00012754    0.00001053
     atom    2 type  2   force =    -0.00013457   -0.00006374   -0.00032704
     atom    3 type  2   force =    -0.00013457   -0.00006379    0.00031651

     Total force =     0.000583     Total SCF correction =     0.000004


     Computing stress (Cartesian axis) and pressure


     negative rho (up, down):  5.462E-04 0.000E+00
          total   stress  (Ry/bohr**3)                   (kbar)     P=        0.03
   0.00000519  -0.00000085  -0.00000000            0.76       -0.13       -0.00
  -0.00000085   0.00000204  -0.00000000           -0.13        0.30       -0.00
  -0.00000000  -0.00000000  -0.00000661           -0.00       -0.00       -0.97


     Writing output data file /scratch/as3359/MoS2-CT/MoS2.save/
 
     init_run     :      4.77s CPU      2.61s WALL (       1 calls)
     electrons    :    151.45s CPU     78.36s WALL (       1 calls)
     forces       :      1.58s CPU      0.81s WALL (       1 calls)
     stress       :      4.51s CPU      2.32s WALL (       1 calls)

     Called by init_run:
     wfcinit      :      2.22s CPU      1.15s WALL (       1 calls)
     potinit      :      0.70s CPU      0.36s WALL (       1 calls)
     hinit0       :      1.65s CPU      0.98s WALL (       1 calls)

     Called by electrons:
     c_bands      :    120.11s CPU     61.38s WALL (      26 calls)
     sum_band     :     21.49s CPU     11.44s WALL (      26 calls)
     v_of_rho     :      1.66s CPU      0.92s WALL (      26 calls)
     newd         :      2.96s CPU      1.94s WALL (      26 calls)
     PAW_pot      :      4.79s CPU      2.46s WALL (      26 calls)
     mix_rho      :      0.50s CPU      0.26s WALL (      26 calls)

     Called by c_bands:
     init_us_2    :      4.06s CPU      2.08s WALL (    4070 calls)
     cegterg      :    112.97s CPU     57.74s WALL (    1924 calls)

     Called by *egterg:
     cdiaghg      :      3.36s CPU      1.72s WALL (    9578 calls)
     h_psi        :     96.01s CPU     49.15s WALL (    9726 calls)
     s_psi        :      2.53s CPU      1.29s WALL (    9726 calls)
     g_psi        :      0.72s CPU      0.36s WALL (    7728 calls)

     Called by h_psi:
     h_psi:calbec :      2.88s CPU      1.47s WALL (    9726 calls)
     vloc_psi     :     89.81s CPU     45.98s WALL (    9726 calls)
     add_vuspsi   :      2.54s CPU      1.30s WALL (    9726 calls)

     General routines
     calbec       :      3.67s CPU      1.89s WALL (   12020 calls)
     fft          :      0.78s CPU      0.40s WALL (     362 calls)
     ffts         :      0.08s CPU      0.04s WALL (      52 calls)
     fftw         :     90.43s CPU     46.31s WALL (  185926 calls)
     interpolate  :      0.16s CPU      0.08s WALL (      26 calls)
 
     Parallel routines
 
     PWSCF        :   2m43.14s CPU   1m24.88s WALL

 
   This run was terminated on:  11:50:52   6Apr2022            

=------------------------------------------------------------------------------=
   JOB DONE.
=------------------------------------------------------------------------------=
