
     Program PWSCF v.6.8 starts on  6Apr2022 at 11:54:30 

     This program is part of the open-source Quantum ESPRESSO suite
     for quantum simulation of materials; please cite
         "P. Giannozzi et al., J. Phys.:Condens. Matter 21 395502 (2009);
         "P. Giannozzi et al., J. Phys.:Condens. Matter 29 465901 (2017);
         "P. Giannozzi et al., J. Chem. Phys. 152 154105 (2020);
          URL http://www.quantum-espresso.org", 
     in publications or presentations arising from this work. More details at
     http://www.quantum-espresso.org/quote

     Parallel version (MPI & OpenMP), running on       4 processor cores
     Number of MPI processes:                 2
     Threads/MPI process:                     2

     MPI processes distributed on     1 nodes
     R & G space division:  proc/nbgrp/npool/nimage =       2
     125226 MiB available memory on the printing compute node when the environment starts
 
     Reading input from MoS2.scf.80.in

     Current dimensions of program PWSCF are:
     Max number of different atomic species (ntypx) = 10
     Max number of k-points (npk) =  40000
     Max angular momentum in pseudopotentials (lmaxx) =  4
     file Mo.pbesol-spn-kjpaw_psl.1.0.0.UPF: wavefunction(s)  4S 4D renormalized
     file S.pbesol-nl-kjpaw_psl.1.0.0.UPF: wavefunction(s)  3S renormalized

     Subspace diagonalization in iterative solution of the eigenvalue problem:
     a serial algorithm will be used

 
     Parallelization info
     --------------------
     sticks:   dense  smooth     PW     G-vecs:    dense   smooth      PW
     Min         477     384    120                62349    44668    7800
     Max         478     385    121                62382    44685    7817
     Sum         955     769    241               124731    89353   15617
 
     Using Slab Decomposition
 


     bravais-lattice index     =            0
     lattice parameter (alat)  =       6.0720  a.u.
     unit-cell volume          =     924.7995 (a.u.)^3
     number of atoms/cell      =            3
     number of atomic types    =            2
     number of electrons       =        26.00
     number of Kohn-Sham states=           13
     kinetic-energy cutoff     =      80.0000  Ry
     charge density cutoff     =     400.0000  Ry
     scf convergence threshold =      1.0E-12
     mixing beta               =       0.7000
     number of iterations used =            8  plain     mixing
     Exchange-correlation= SLA  PW   PSX  PSC
                           (   1   4  10   8   0   0   0)

     celldm(1)=   6.072000  celldm(2)=   0.000000  celldm(3)=   0.000000
     celldm(4)=   0.000000  celldm(5)=   0.000000  celldm(6)=   0.000000

     crystal axes: (cart. coord. in units of alat)
               a(1) = (   0.976384  -0.000017   0.000000 )  
               a(2) = (  -0.487931   0.846187   0.000000 )  
               a(3) = (   0.000000   0.000000   5.000000 )  

     reciprocal axes: (cart. coord. in units 2 pi/alat)
               b(1) = (  1.024198  0.590577  0.000000 )  
               b(2) = (  0.000021  1.181785  0.000000 )  
               b(3) = (  0.000000  0.000000  0.200000 )  


     PseudoPot. # 1 for Mo read from file:
     /shared/home/as3359/pseudo/Mo.pbesol-spn-kjpaw_psl.1.0.0.UPF
     MD5 check sum: de57925cfc675213e43241dcc441eda8
     Pseudo is Projector augmented-wave + core cor, Zval = 14.0
     Generated using &quot;atomic&quot; code by A. Dal Corso  v.6.3
     Shape of augmentation charge: PSQ
     Using radial grid of 1229 points,  6 beta functions with: 
                l(1) =   0
                l(2) =   0
                l(3) =   1
                l(4) =   1
                l(5) =   2
                l(6) =   2
     Q(r) pseudized with 0 coefficients 


     PseudoPot. # 2 for S  read from file:
     /shared/home/as3359/pseudo/S.pbesol-nl-kjpaw_psl.1.0.0.UPF
     MD5 check sum: bf3db50ec3f960682bbc396f1aadd1dd
     Pseudo is Projector augmented-wave + core cor, Zval =  6.0
     Generated using &quot;atomic&quot; code by A. Dal Corso  v.6.3
     Shape of augmentation charge: PSQ
     Using radial grid of 1151 points,  4 beta functions with: 
                l(1) =   0
                l(2) =   0
                l(3) =   1
                l(4) =   1
     Q(r) pseudized with 0 coefficients 


     atomic species   valence    mass     pseudopotential
        Mo            14.00    95.94000     Mo( 1.00)
        S              6.00    32.06500     S ( 1.00)

     No symmetry found



   Cartesian axes

     site n.     atom                  positions (alat units)
         1           Mo  tau(   1) = (   0.0000000   0.0000000   1.6880765  )
         2           S   tau(   2) = (   0.4883508   0.2821722   2.1737857  )
         3           S   tau(   3) = (   0.4883508   0.2821722   1.2023670  )

     number of k points=    74
                       cart. coord. in units 2pi/alat
        k(    1) = (   0.0000000   0.0000000   0.0000000), wk =   0.0138889
        k(    2) = (   0.0000017   0.0984820   0.0000000), wk =   0.0277778
        k(    3) = (   0.0000035   0.1969641   0.0000000), wk =   0.0277778
        k(    4) = (   0.0000052   0.2954461   0.0000000), wk =   0.0277778
        k(    5) = (   0.0000070   0.3939282   0.0000000), wk =   0.0277778
        k(    6) = (   0.0000087   0.4924102   0.0000000), wk =   0.0277778
        k(    7) = (  -0.0000105  -0.5908923   0.0000000), wk =   0.0138889
        k(    8) = (   0.0853498   0.0492147   0.0000000), wk =   0.0277778
        k(    9) = (   0.0853516   0.1476968   0.0000000), wk =   0.0277778
        k(   10) = (   0.0853533   0.2461788   0.0000000), wk =   0.0277778
        k(   11) = (   0.0853550   0.3446609   0.0000000), wk =   0.0277778
        k(   12) = (   0.0853568   0.4431429   0.0000000), wk =   0.0277778
        k(   13) = (   0.0853585   0.5416249   0.0000000), wk =   0.0277778
        k(   14) = (   0.0853394  -0.5416775   0.0000000), wk =   0.0277778
        k(   15) = (   0.0853411  -0.4431955   0.0000000), wk =   0.0277778
        k(   16) = (   0.0853428  -0.3447135   0.0000000), wk =   0.0277778
        k(   17) = (   0.0853446  -0.2462314   0.0000000), wk =   0.0277778
        k(   18) = (   0.0853463  -0.1477494   0.0000000), wk =   0.0277778
        k(   19) = (   0.0853481  -0.0492673   0.0000000), wk =   0.0277778
        k(   20) = (   0.1706996   0.0984294   0.0000000), wk =   0.0277778
        k(   21) = (   0.1707014   0.1969115   0.0000000), wk =   0.0277778
        k(   22) = (   0.1707031   0.2953935   0.0000000), wk =   0.0277778
        k(   23) = (   0.1707049   0.3938756   0.0000000), wk =   0.0277778
        k(   24) = (   0.1707066   0.4923576   0.0000000), wk =   0.0277778
        k(   25) = (   0.1707083   0.5908397   0.0000000), wk =   0.0277778
        k(   26) = (   0.1706892  -0.4924628   0.0000000), wk =   0.0277778
        k(   27) = (   0.1706909  -0.3939808   0.0000000), wk =   0.0277778
        k(   28) = (   0.1706927  -0.2954987   0.0000000), wk =   0.0277778
        k(   29) = (   0.1706944  -0.1970167   0.0000000), wk =   0.0277778
        k(   30) = (   0.1706961  -0.0985346   0.0000000), wk =   0.0277778
        k(   31) = (   0.1706979  -0.0000526   0.0000000), wk =   0.0277778
        k(   32) = (   0.2560494   0.1476442   0.0000000), wk =   0.0277778
        k(   33) = (   0.2560512   0.2461262   0.0000000), wk =   0.0277778
        k(   34) = (   0.2560529   0.3446082   0.0000000), wk =   0.0277778
        k(   35) = (   0.2560547   0.4430903   0.0000000), wk =   0.0277778
        k(   36) = (   0.2560564   0.5415723   0.0000000), wk =   0.0277778
        k(   37) = (   0.2560582   0.6400544   0.0000000), wk =   0.0277778
        k(   38) = (   0.2560390  -0.4432481   0.0000000), wk =   0.0277778
        k(   39) = (   0.2560407  -0.3447661   0.0000000), wk =   0.0277778
        k(   40) = (   0.2560425  -0.2462840   0.0000000), wk =   0.0277778
        k(   41) = (   0.2560442  -0.1478020   0.0000000), wk =   0.0277778
        k(   42) = (   0.2560460  -0.0493199   0.0000000), wk =   0.0277778
        k(   43) = (   0.2560477   0.0491621   0.0000000), wk =   0.0277778
        k(   44) = (   0.3413993   0.1968589   0.0000000), wk =   0.0277778
        k(   45) = (   0.3414010   0.2953409   0.0000000), wk =   0.0277778
        k(   46) = (   0.3414027   0.3938230   0.0000000), wk =   0.0277778
        k(   47) = (   0.3414045   0.4923050   0.0000000), wk =   0.0277778
        k(   48) = (   0.3414062   0.5907871   0.0000000), wk =   0.0277778
        k(   49) = (   0.3414080   0.6892691   0.0000000), wk =   0.0277778
        k(   50) = (   0.3413888  -0.3940334   0.0000000), wk =   0.0277778
        k(   51) = (   0.3413905  -0.2955513   0.0000000), wk =   0.0277778
        k(   52) = (   0.3413923  -0.1970693   0.0000000), wk =   0.0277778
        k(   53) = (   0.3413940  -0.0985872   0.0000000), wk =   0.0277778
        k(   54) = (   0.3413958  -0.0001052   0.0000000), wk =   0.0277778
        k(   55) = (   0.3413975   0.0983768   0.0000000), wk =   0.0277778
        k(   56) = (   0.4267491   0.2460736   0.0000000), wk =   0.0277778
        k(   57) = (   0.4267508   0.3445556   0.0000000), wk =   0.0277778
        k(   58) = (   0.4267526   0.4430377   0.0000000), wk =   0.0277778
        k(   59) = (   0.4267543   0.5415197   0.0000000), wk =   0.0277778
        k(   60) = (   0.4267560   0.6400018   0.0000000), wk =   0.0277778
        k(   61) = (   0.4267578   0.7384838   0.0000000), wk =   0.0277778
        k(   62) = (   0.4267386  -0.3448187   0.0000000), wk =   0.0277778
        k(   63) = (   0.4267404  -0.2463366   0.0000000), wk =   0.0277778
        k(   64) = (   0.4267421  -0.1478546   0.0000000), wk =   0.0277778
        k(   65) = (   0.4267438  -0.0493725   0.0000000), wk =   0.0277778
        k(   66) = (   0.4267456   0.0491095   0.0000000), wk =   0.0277778
        k(   67) = (   0.4267473   0.1475916   0.0000000), wk =   0.0277778
        k(   68) = (  -0.5120989  -0.2952883   0.0000000), wk =   0.0138889
        k(   69) = (  -0.5120971  -0.1968063   0.0000000), wk =   0.0277778
        k(   70) = (  -0.5120954  -0.0983242   0.0000000), wk =   0.0277778
        k(   71) = (  -0.5120937   0.0001578   0.0000000), wk =   0.0277778
        k(   72) = (  -0.5120919   0.0986398   0.0000000), wk =   0.0277778
        k(   73) = (  -0.5120902   0.1971219   0.0000000), wk =   0.0277778
        k(   74) = (  -0.5121093  -0.8861806   0.0000000), wk =   0.0138889

     Dense  grid:   124731 G-vectors     FFT dimensions: (  40,  40, 200)

     Smooth grid:    89353 G-vectors     FFT dimensions: (  36,  36, 180)

     Estimated max dynamical RAM per process >     319.25 MB

     Estimated total dynamical RAM >     638.50 MB

     Initial potential from superposition of free atoms

     starting charge   25.99914, renormalised to   26.00000

     negative rho (up, down):  2.516E-05 0.000E+00
     Starting wfcs are   18 randomized atomic wfcs
     Checking if some PAW data can be deallocated... 

     total cpu time spent up to now is        3.7 secs

     Self-consistent Calculation

     iteration #  1     ecut=    80.00 Ry     beta= 0.70
     Davidson diagonalization with overlap
     ethr =  1.00E-02,  avg # of iterations =  2.0

     Threshold (ethr) on eigenvalues was too large:
     Diagonalizing with lowered threshold

     Davidson diagonalization with overlap
     ethr =  3.44E-04,  avg # of iterations =  3.9

     negative rho (up, down):  1.726E-05 0.000E+00

     total cpu time spent up to now is       11.2 secs

     total energy              =    -489.69321521 Ry
     estimated scf accuracy    <       0.14255764 Ry

     iteration #  2     ecut=    80.00 Ry     beta= 0.70
     Davidson diagonalization with overlap
     ethr =  5.48E-04,  avg # of iterations =  5.2

     negative rho (up, down):  1.346E-05 0.000E+00

     total cpu time spent up to now is       16.1 secs

     total energy              =    -489.64911746 Ry
     estimated scf accuracy    <       0.56127983 Ry

     iteration #  3     ecut=    80.00 Ry     beta= 0.70
     Davidson diagonalization with overlap
     ethr =  5.48E-04,  avg # of iterations =  5.2

     negative rho (up, down):  1.266E-05 0.000E+00

     total cpu time spent up to now is       20.9 secs

     total energy              =    -489.75255455 Ry
     estimated scf accuracy    <       0.03194298 Ry

     iteration #  4     ecut=    80.00 Ry     beta= 0.70
     Davidson diagonalization with overlap
     ethr =  1.23E-04,  avg # of iterations =  2.5

     negative rho (up, down):  1.644E-05 0.000E+00

     total cpu time spent up to now is       24.3 secs

     total energy              =    -489.75473358 Ry
     estimated scf accuracy    <       0.00454294 Ry

     iteration #  5     ecut=    80.00 Ry     beta= 0.70
     Davidson diagonalization with overlap
     ethr =  1.75E-05,  avg # of iterations =  4.9

     negative rho (up, down):  1.656E-05 0.000E+00

     total cpu time spent up to now is       29.0 secs

     total energy              =    -489.75735803 Ry
     estimated scf accuracy    <       0.00410390 Ry

     iteration #  6     ecut=    80.00 Ry     beta= 0.70
     Davidson diagonalization with overlap
     ethr =  1.58E-05,  avg # of iterations =  1.0

     negative rho (up, down):  1.734E-05 0.000E+00

     total cpu time spent up to now is       32.0 secs

     total energy              =    -489.75670557 Ry
     estimated scf accuracy    <       0.00283652 Ry

     iteration #  7     ecut=    80.00 Ry     beta= 0.70
     Davidson diagonalization with overlap
     ethr =  1.09E-05,  avg # of iterations =  2.8

     negative rho (up, down):  1.835E-05 0.000E+00

     total cpu time spent up to now is       35.4 secs

     total energy              =    -489.75695244 Ry
     estimated scf accuracy    <       0.00032056 Ry

     iteration #  8     ecut=    80.00 Ry     beta= 0.70
     Davidson diagonalization with overlap
     ethr =  1.23E-06,  avg # of iterations =  4.7

     negative rho (up, down):  1.981E-05 0.000E+00

     total cpu time spent up to now is       39.7 secs

     total energy              =    -489.75705231 Ry
     estimated scf accuracy    <       0.00006379 Ry

     iteration #  9     ecut=    80.00 Ry     beta= 0.70
     Davidson diagonalization with overlap
     ethr =  2.45E-07,  avg # of iterations =  5.2

     negative rho (up, down):  1.974E-05 0.000E+00

     total cpu time spent up to now is       44.4 secs

     total energy              =    -489.75704726 Ry
     estimated scf accuracy    <       0.00019914 Ry

     iteration # 10     ecut=    80.00 Ry     beta= 0.70
     Davidson diagonalization with overlap
     ethr =  2.45E-07,  avg # of iterations =  3.1

     negative rho (up, down):  1.980E-05 0.000E+00

     total cpu time spent up to now is       48.2 secs

     total energy              =    -489.75704326 Ry
     estimated scf accuracy    <       0.00004825 Ry

     iteration # 11     ecut=    80.00 Ry     beta= 0.70
     Davidson diagonalization with overlap
     ethr =  1.86E-07,  avg # of iterations =  4.2

     negative rho (up, down):  1.986E-05 0.000E+00

     total cpu time spent up to now is       52.4 secs

     total energy              =    -489.75705462 Ry
     estimated scf accuracy    <       0.00001400 Ry

     iteration # 12     ecut=    80.00 Ry     beta= 0.70
     Davidson diagonalization with overlap
     ethr =  5.39E-08,  avg # of iterations =  3.0

     negative rho (up, down):  1.985E-05 0.000E+00

     total cpu time spent up to now is       56.1 secs

     total energy              =    -489.75705678 Ry
     estimated scf accuracy    <       0.00000022 Ry

     iteration # 13     ecut=    80.00 Ry     beta= 0.70
     Davidson diagonalization with overlap
     ethr =  8.52E-10,  avg # of iterations =  6.0

     negative rho (up, down):  1.989E-05 0.000E+00

     total cpu time spent up to now is       61.7 secs

     total energy              =    -489.75705699 Ry
     estimated scf accuracy    <       0.00000072 Ry

     iteration # 14     ecut=    80.00 Ry     beta= 0.70
     Davidson diagonalization with overlap
     ethr =  8.52E-10,  avg # of iterations =  3.7

     negative rho (up, down):  1.989E-05 0.000E+00

     total cpu time spent up to now is       65.6 secs

     total energy              =    -489.75705702 Ry
     estimated scf accuracy    <       0.00000009 Ry

     iteration # 15     ecut=    80.00 Ry     beta= 0.70
     Davidson diagonalization with overlap
     ethr =  3.37E-10,  avg # of iterations =  4.3

     negative rho (up, down):  1.990E-05 0.000E+00

     total cpu time spent up to now is       69.7 secs

     total energy              =    -489.75705704 Ry
     estimated scf accuracy    <       0.00000002 Ry

     iteration # 16     ecut=    80.00 Ry     beta= 0.70
     Davidson diagonalization with overlap
     ethr =  9.50E-11,  avg # of iterations =  3.1

     negative rho (up, down):  1.990E-05 0.000E+00

     total cpu time spent up to now is       73.3 secs

     total energy              =    -489.75705704 Ry
     estimated scf accuracy    <       0.00000001 Ry

     iteration # 17     ecut=    80.00 Ry     beta= 0.70
     Davidson diagonalization with overlap
     ethr =  5.52E-11,  avg # of iterations =  3.9

     negative rho (up, down):  1.990E-05 0.000E+00

     total cpu time spent up to now is       77.2 secs

     total energy              =    -489.75705704 Ry
     estimated scf accuracy    <          4.0E-09 Ry

     iteration # 18     ecut=    80.00 Ry     beta= 0.70
     Davidson diagonalization with overlap
     ethr =  1.55E-11,  avg # of iterations =  2.2

     negative rho (up, down):  1.990E-05 0.000E+00

     total cpu time spent up to now is       80.5 secs

     total energy              =    -489.75705704 Ry
     estimated scf accuracy    <          2.6E-09 Ry

     iteration # 19     ecut=    80.00 Ry     beta= 0.70
     Davidson diagonalization with overlap
     ethr =  9.81E-12,  avg # of iterations =  2.3

     negative rho (up, down):  1.990E-05 0.000E+00

     total cpu time spent up to now is       83.7 secs

     total energy              =    -489.75705704 Ry
     estimated scf accuracy    <          7.4E-10 Ry

     iteration # 20     ecut=    80.00 Ry     beta= 0.70
     Davidson diagonalization with overlap
     ethr =  2.83E-12,  avg # of iterations =  4.6

     negative rho (up, down):  1.990E-05 0.000E+00

     total cpu time spent up to now is       88.1 secs

     total energy              =    -489.75705704 Ry
     estimated scf accuracy    <          2.3E-10 Ry

     iteration # 21     ecut=    80.00 Ry     beta= 0.70
     Davidson diagonalization with overlap
     ethr =  9.03E-13,  avg # of iterations =  1.8

     negative rho (up, down):  1.990E-05 0.000E+00

     total cpu time spent up to now is       91.2 secs

     total energy              =    -489.75705704 Ry
     estimated scf accuracy    <          9.5E-11 Ry

     iteration # 22     ecut=    80.00 Ry     beta= 0.70
     Davidson diagonalization with overlap
     ethr =  3.67E-13,  avg # of iterations =  3.9

     negative rho (up, down):  1.990E-05 0.000E+00

     total cpu time spent up to now is       95.0 secs

     total energy              =    -489.75705704 Ry
     estimated scf accuracy    <          5.7E-12 Ry

     iteration # 23     ecut=    80.00 Ry     beta= 0.70
     Davidson diagonalization with overlap
     ethr =  1.00E-13,  avg # of iterations =  3.7

     negative rho (up, down):  1.990E-05 0.000E+00

     total cpu time spent up to now is       98.6 secs

     total energy              =    -489.75705704 Ry
     estimated scf accuracy    <          3.6E-12 Ry

     iteration # 24     ecut=    80.00 Ry     beta= 0.70
     Davidson diagonalization with overlap
     ethr =  1.00E-13,  avg # of iterations =  1.1

     negative rho (up, down):  1.990E-05 0.000E+00

     total cpu time spent up to now is      101.6 secs

     End of self-consistent calculation

          k = 0.0000 0.0000 0.0000 ( 11261 PWs)   bands (ev):

   -60.3454 -34.5530 -34.2853 -34.2840 -13.8550 -12.5034  -5.4142  -2.2344
    -2.2257  -1.4937  -1.0734  -1.0670   0.2791

          k = 0.0000 0.0985 0.0000 ( 11251 PWs)   bands (ev):

   -60.3424 -34.5471 -34.3153 -34.2907 -13.7452 -12.4581  -5.2902  -2.4745
    -2.1113  -1.9582  -1.2404  -0.7775   0.2368

          k = 0.0000 0.1970 0.0000 ( 11203 PWs)   bands (ev):

   -60.3340 -34.5308 -34.3966 -34.3092 -13.4324 -12.3292  -4.9795  -3.0228
    -2.6260  -1.7909  -1.6469  -0.7038   0.0217

          k = 0.0000 0.2954 0.0000 ( 11193 PWs)   bands (ev):

   -60.3226 -34.5085 -34.5060 -34.3342 -12.9678 -12.1392  -4.7595  -3.4843
    -3.3107  -2.1004  -1.3424  -0.9770  -0.4113

          k = 0.0000 0.3939 0.0000 ( 11170 PWs)   bands (ev):

   -60.3112 -34.6136 -34.4861 -34.3591 -12.4425 -11.9293  -5.0166  -3.9456
    -3.5886  -2.4809  -1.3006  -0.8968  -0.6650

          k = 0.0000 0.4924 0.0000 ( 11134 PWs)   bands (ev):

   -60.3028 -34.6913 -34.4697 -34.3773 -12.0007 -11.7596  -5.4145  -4.4115
    -3.7135  -2.7275  -1.5045  -0.5931  -0.4738

          k =-0.0000-0.5909 0.0000 ( 11138 PWs)   bands (ev):

   -60.2997 -34.7195 -34.4637 -34.3839 -11.8217 -11.6933  -5.5870  -4.5844
    -3.8029  -2.8124  -1.5697  -0.4917  -0.2948

          k = 0.0853 0.0492 0.0000 ( 11251 PWs)   bands (ev):

   -60.3424 -34.5471 -34.3145 -34.2915 -13.7451 -12.4580  -5.2902  -2.4710
    -2.1152  -1.9560  -1.2457  -0.7747   0.2373

          k = 0.0854 0.1477 0.0000 ( 11231 PWs)   bands (ev):

   -60.3367 -34.5360 -34.3691 -34.3051 -13.5338 -12.3707  -5.0690  -2.8608
    -2.4002  -1.9031  -1.6497  -0.5820   0.1088

          k = 0.0854 0.2462 0.0000 ( 11195 PWs)   bands (ev):

   -60.3268 -34.5167 -34.4606 -34.3307 -13.1440 -12.2101  -4.7706  -3.3487
    -2.9633  -2.2306  -1.5736  -0.6197  -0.2244

          k = 0.0854 0.3447 0.0000 ( 11182 PWs)   bands (ev):

   -60.3154 -34.5645 -34.4943 -34.3603 -12.6452 -12.0066  -4.7988  -3.6376
    -3.5305  -2.6165  -1.3409  -0.9375  -0.5029

          k = 0.0854 0.4431 0.0000 ( 11165 PWs)   bands (ev):

   -60.3055 -34.6531 -34.4749 -34.3859 -12.1521 -11.8105  -5.1607  -4.2545
    -3.5838  -2.7871  -1.2948  -1.2407  -0.3608

          k = 0.0854 0.5416 0.0000 ( 11139 PWs)   bands (ev):

   -60.2997 -34.7037 -34.4637 -34.4006 -11.8298 -11.6866  -5.4415  -4.6158
    -3.7353  -2.8381  -1.5173  -1.0957  -0.1133

          k = 0.0853-0.5417 0.0000 ( 11143 PWs)   bands (ev):

   -60.2997 -34.7038 -34.4637 -34.4006 -11.8297 -11.6866  -5.4417  -4.6157
    -3.7353  -2.8387  -1.5168  -1.0948  -0.1144

          k = 0.0853-0.4432 0.0000 ( 11161 PWs)   bands (ev):

   -60.3054 -34.6532 -34.4749 -34.3859 -12.1518 -11.8104  -5.1612  -4.2543
    -3.5839  -2.7883  -1.2937  -1.2386  -0.3631

          k = 0.0853-0.3447 0.0000 ( 11182 PWs)   bands (ev):

   -60.3154 -34.5646 -34.4943 -34.3604 -12.6448 -12.0065  -4.7990  -3.6377
    -3.5306  -2.6172  -1.3391  -0.9367  -0.5052

          k = 0.0853-0.2462 0.0000 ( 11195 PWs)   bands (ev):

   -60.3268 -34.5167 -34.4607 -34.3308 -13.1437 -12.2100  -4.7704  -3.3482
    -2.9642  -2.2300  -1.5741  -0.6194  -0.2253

          k = 0.0853-0.1477 0.0000 ( 11225 PWs)   bands (ev):

   -60.3367 -34.5359 -34.3690 -34.3054 -13.5335 -12.3706  -5.0687  -2.8587
    -2.4012  -1.9058  -1.6487  -0.5820   0.1087

          k = 0.0853-0.0493 0.0000 ( 11245 PWs)   bands (ev):

   -60.3424 -34.5471 -34.3142 -34.2919 -13.7450 -12.4580  -5.2901  -2.4679
    -2.1186  -1.9564  -1.2454  -0.7746   0.2373

          k = 0.1707 0.0984 0.0000 ( 11201 PWs)   bands (ev):

   -60.3340 -34.5308 -34.3959 -34.3100 -13.4321 -12.3287  -4.9794  -3.0202
    -2.6232  -1.7947  -1.6527  -0.7024   0.0233

          k = 0.1707 0.1969 0.0000 ( 11199 PWs)   bands (ev):

   -60.3268 -34.5167 -34.4603 -34.3312 -13.1438 -12.2097  -4.7706  -3.3473
    -2.9610  -2.2343  -1.5756  -0.6196  -0.2232

          k = 0.1707 0.2954 0.0000 ( 11201 PWs)   bands (ev):

   -60.3169 -34.5391 -34.4973 -34.3684 -12.7170 -12.0328  -4.6894  -3.4869
    -3.3880  -2.8932  -1.5784  -0.6545  -0.4345

          k = 0.1707 0.3939 0.0000 ( 11183 PWs)   bands (ev):

   -60.3070 -34.6130 -34.4779 -34.4096 -12.2398 -11.8350  -4.8883  -4.1144
    -3.3891  -3.0078  -1.8995  -0.9771  -0.3636

          k = 0.1707 0.4924 0.0000 ( 11158 PWs)   bands (ev):

   -60.2997 -34.6653 -34.4637 -34.4410 -11.8457 -11.6729  -5.1011  -4.6736
    -3.5274  -2.9125  -2.0138  -1.3739  -0.1092

          k = 0.1707 0.5908 0.0000 ( 11162 PWs)   bands (ev):

   -60.2970 -34.6841 -34.4584 -34.4526 -11.6888 -11.6090  -5.1811  -4.8774
    -3.6691  -2.8310  -1.9982  -1.5661   0.0717

          k = 0.1707-0.4925 0.0000 ( 11158 PWs)   bands (ev):

   -60.2997 -34.6654 -34.4636 -34.4409 -11.8452 -11.6727  -5.1018  -4.6735
    -3.5276  -2.9136  -2.0122  -1.3729  -0.1109

          k = 0.1707-0.3940 0.0000 ( 11181 PWs)   bands (ev):

   -60.3069 -34.6133 -34.4779 -34.4096 -12.2390 -11.8348  -4.8890  -4.1141
    -3.3892  -3.0091  -1.8975  -0.9760  -0.3659

          k = 0.1707-0.2955 0.0000 ( 11201 PWs)   bands (ev):

   -60.3169 -34.5393 -34.4973 -34.3686 -12.7163 -12.0325  -4.6895  -3.4862
    -3.3882  -2.8939  -1.5778  -0.6537  -0.4367

          k = 0.1707-0.1970 0.0000 ( 11199 PWs)   bands (ev):

   -60.3268 -34.5166 -34.4603 -34.3315 -13.1432 -12.2095  -4.7703  -3.3455
    -2.9617  -2.2344  -1.5778  -0.6191  -0.2238

          k = 0.1707-0.0985 0.0000 ( 11203 PWs)   bands (ev):

   -60.3340 -34.5307 -34.3957 -34.3104 -13.4318 -12.3285  -4.9791  -3.0178
    -2.6234  -1.7978  -1.6533  -0.7016   0.0234

          k = 0.1707-0.0001 0.0000 ( 11225 PWs)   bands (ev):

   -60.3367 -34.5359 -34.3684 -34.3061 -13.5333 -12.3703  -5.0686  -2.8568
    -2.3993  -1.9087  -1.6523  -0.5811   0.1098

          k = 0.2560 0.1476 0.0000 ( 11195 PWs)   bands (ev):

   -60.3226 -34.5084 -34.5055 -34.3352 -12.9671 -12.1380  -4.7596  -3.4820
    -3.3086  -2.1067  -1.3462  -0.9760  -0.4085

          k = 0.2561 0.2461 0.0000 ( 11182 PWs)   bands (ev):

   -60.3153 -34.5641 -34.4943 -34.3611 -12.6446 -12.0055  -4.7987  -3.6359
    -3.5284  -2.6213  -1.3435  -0.9374  -0.5014

          k = 0.2561 0.3446 0.0000 ( 11183 PWs)   bands (ev):

   -60.3069 -34.6128 -34.4779 -34.4100 -12.2395 -11.8343  -4.8880  -4.1142
    -3.3881  -3.0096  -1.9009  -0.9770  -0.3632

          k = 0.2561 0.4431 0.0000 ( 11162 PWs)   bands (ev):

   -60.2997 -34.6394 -34.4680 -34.4637 -11.8534 -11.6655  -4.8955  -4.7007
    -3.2616  -2.9579  -2.6204  -1.2849  -0.1373

          k = 0.2561 0.5416 0.0000 ( 11159 PWs)   bands (ev):

   -60.2955 -34.6449 -34.5112 -34.4554 -11.6120 -11.5568  -5.0666  -4.7706
    -3.5325  -2.8881  -2.7485  -1.6395   0.1799

          k = 0.2561 0.6401 0.0000 ( 11162 PWs)   bands (ev):

   -60.2954 -34.6451 -34.5111 -34.4554 -11.6116 -11.5567  -5.0666  -4.7712
    -3.5328  -2.8871  -2.7491  -1.6390   0.1792

          k = 0.2560-0.4432 0.0000 ( 11164 PWs)   bands (ev):

   -60.2996 -34.6396 -34.4680 -34.4636 -11.8524 -11.6652  -4.8965  -4.7006
    -3.2620  -2.9592  -2.6186  -1.2842  -0.1389

          k = 0.2560-0.3448 0.0000 ( 11181 PWs)   bands (ev):

   -60.3069 -34.6130 -34.4778 -34.4102 -12.2383 -11.8339  -4.8887  -4.1140
    -3.3868  -3.0112  -1.9006  -0.9763  -0.3653

          k = 0.2560-0.2463 0.0000 ( 11176 PWs)   bands (ev):

   -60.3153 -34.5641 -34.4942 -34.3615 -12.6436 -12.0051  -4.7987  -3.6357
    -3.5265  -2.6229  -1.3444  -0.9368  -0.5034

          k = 0.2560-0.1478 0.0000 ( 11195 PWs)   bands (ev):

   -60.3225 -34.5084 -34.5054 -34.3356 -12.9664 -12.1377  -4.7592  -3.4798
    -3.3085  -2.1082  -1.3491  -0.9754  -0.4086

          k = 0.2560-0.0493 0.0000 ( 11197 PWs)   bands (ev):

   -60.3267 -34.5166 -34.4602 -34.3319 -13.1428 -12.2089  -4.7701  -3.3459
    -2.9620  -2.2350  -1.5782  -0.6190  -0.2232

          k = 0.2560 0.0492 0.0000 ( 11195 PWs)   bands (ev):

   -60.3267 -34.5166 -34.4603 -34.3316 -13.1431 -12.2090  -4.7703  -3.3471
    -2.9622  -2.2344  -1.5765  -0.6192  -0.2234

          k = 0.3414 0.1969 0.0000 ( 11172 PWs)   bands (ev):

   -60.3111 -34.6133 -34.4860 -34.3602 -12.4415 -11.9273  -5.0164  -3.9451
    -3.5868  -2.4876  -1.2990  -0.9012  -0.6617

          k = 0.3414 0.2953 0.0000 ( 11163 PWs)   bands (ev):

   -60.3054 -34.6527 -34.4748 -34.3869 -12.1512 -11.8086  -5.1599  -4.2547
    -3.5826  -2.7921  -1.2936  -1.2430  -0.3599

          k = 0.3414 0.3938 0.0000 ( 11160 PWs)   bands (ev):

   -60.2996 -34.6650 -34.4636 -34.4417 -11.8450 -11.6714  -5.1002  -4.6747
    -3.5269  -2.9151  -2.0163  -1.3728  -0.1080

          k = 0.3414 0.4923 0.0000 ( 11158 PWs)   bands (ev):

   -60.2954 -34.6447 -34.5116 -34.4554 -11.6116 -11.5560  -5.0675  -4.7701
    -3.5320  -2.8897  -2.7497  -1.6385   0.1805

          k = 0.3414 0.5908 0.0000 ( 11148 PWs)   bands (ev):

   -60.2939 -34.6124 -34.5623 -34.4524 -11.5242 -11.5098  -5.2233  -4.3602
    -3.8337  -3.2101  -2.5871  -1.8343   0.3757

          k = 0.3414 0.6893 0.0000 ( 11162 PWs)   bands (ev):

   -60.2954 -34.6449 -34.5117 -34.4553 -11.6108 -11.5557  -5.0676  -4.7708
    -3.5316  -2.8897  -2.7505  -1.6384   0.1799

          k = 0.3414-0.3940 0.0000 ( 11158 PWs)   bands (ev):

   -60.2996 -34.6652 -34.4635 -34.4420 -11.8437 -11.6708  -5.1008  -4.6747
    -3.5257  -2.9167  -2.0168  -1.3725  -0.1092

          k = 0.3414-0.2956 0.0000 ( 11159 PWs)   bands (ev):

   -60.3053 -34.6529 -34.4747 -34.3873 -12.1498 -11.8080  -5.1601  -4.2543
    -3.5809  -2.7945  -1.2932  -1.2437  -0.3619

          k = 0.3414-0.1971 0.0000 ( 11169 PWs)   bands (ev):

   -60.3110 -34.6133 -34.4859 -34.3607 -12.4404 -11.9268  -5.0162  -3.9447
    -3.5846  -2.4897  -1.2986  -0.9040  -0.6619

          k = 0.3414-0.0986 0.0000 ( 11176 PWs)   bands (ev):

   -60.3153 -34.5642 -34.4942 -34.3617 -12.6431 -12.0045  -4.7991  -3.6370
    -3.5272  -2.6226  -1.3427  -0.9366  -0.5044

          k = 0.3414-0.0001 0.0000 ( 11199 PWs)   bands (ev):

   -60.3168 -34.5392 -34.4972 -34.3691 -12.7154 -12.0313  -4.6899  -3.4867
    -3.3896  -2.8947  -1.5764  -0.6536  -0.4374

          k = 0.3414 0.0984 0.0000 ( 11180 PWs)   bands (ev):

   -60.3153 -34.5643 -34.4942 -34.3613 -12.6437 -12.0048  -4.7993  -3.6373
    -3.5292  -2.6216  -1.3400  -0.9363  -0.5048

          k = 0.4267 0.2461 0.0000 ( 11129 PWs)   bands (ev):

   -60.3027 -34.6911 -34.4696 -34.3784 -11.9993 -11.7569  -5.4135  -4.4126
    -3.7129  -2.7344  -1.5018  -0.5984  -0.4701

          k = 0.4268 0.3446 0.0000 ( 11146 PWs)   bands (ev):

   -60.2996 -34.7035 -34.4635 -34.4017 -11.8286 -11.6840  -5.4402  -4.6174
    -3.7352  -2.8437  -1.5149  -1.0987  -0.1119

          k = 0.4268 0.4430 0.0000 ( 11154 PWs)   bands (ev):

   -60.2969 -34.6839 -34.4583 -34.4535 -11.6877 -11.6068  -5.1804  -4.8794
    -3.6690  -2.8345  -2.0006  -1.5639   0.0727

          k = 0.4268 0.5415 0.0000 ( 11157 PWs)   bands (ev):

   -60.2954 -34.6450 -34.5117 -34.4553 -11.6108 -11.5553  -5.0683  -4.7719
    -3.5319  -2.8881  -2.7508  -1.6376   0.1785

          k = 0.4268 0.6400 0.0000 ( 11157 PWs)   bands (ev):

   -60.2954 -34.6450 -34.5118 -34.4553 -11.6104 -11.5551  -5.0684  -4.7720
    -3.5310  -2.8893  -2.7510  -1.6378   0.1787

          k = 0.4268 0.7385 0.0000 ( 11150 PWs)   bands (ev):

   -60.2969 -34.6840 -34.4583 -34.4538 -11.6865 -11.6063  -5.1805  -4.8795
    -3.6681  -2.8355  -2.0021  -1.5642   0.0728

          k = 0.4267-0.3448 0.0000 ( 11148 PWs)   bands (ev):

   -60.2995 -34.7036 -34.4634 -34.4022 -11.8270 -11.6833  -5.4402  -4.6172
    -3.7340  -2.8460  -1.5148  -1.1002  -0.1126

          k = 0.4267-0.2463 0.0000 ( 11130 PWs)   bands (ev):

   -60.3026 -34.6911 -34.4694 -34.3790 -11.9978 -11.7562  -5.4134  -4.4122
    -3.7113  -2.7369  -1.5017  -0.6013  -0.4697

          k = 0.4267-0.1479 0.0000 ( 11159 PWs)   bands (ev):

   -60.3053 -34.6530 -34.4747 -34.3874 -12.1494 -11.8075  -5.1610  -4.2553
    -3.5809  -2.7944  -1.2927  -1.2422  -0.3636

          k = 0.4267-0.0494 0.0000 ( 11183 PWs)   bands (ev):

   -60.3068 -34.6132 -34.4778 -34.4105 -12.2375 -11.8327  -4.8901  -4.1161
    -3.3874  -3.0111  -1.8978  -0.9758  -0.3676

          k = 0.4267 0.0491 0.0000 ( 11181 PWs)   bands (ev):

   -60.3069 -34.6132 -34.4778 -34.4103 -12.2378 -11.8329  -4.8902  -4.1162
    -3.3888  -3.0108  -1.8961  -0.9754  -0.3678

          k = 0.4267 0.1476 0.0000 ( 11159 PWs)   bands (ev):

   -60.3053 -34.6530 -34.4748 -34.3869 -12.1505 -11.8080  -5.1613  -4.2555
    -3.5828  -2.7932  -1.2922  -1.2394  -0.3639

          k =-0.5121-0.2953 0.0000 ( 11142 PWs)   bands (ev):

   -60.2996 -34.7193 -34.4635 -34.3851 -11.8203 -11.6903  -5.5857  -4.5861
    -3.8030  -2.8194  -1.5666  -0.4975  -0.2909

          k =-0.5121-0.1968 0.0000 ( 11145 PWs)   bands (ev):

   -60.2996 -34.7036 -34.4635 -34.4017 -11.8283 -11.6837  -5.4409  -4.6177
    -3.7351  -2.8443  -1.5142  -1.0973  -0.1138

          k =-0.5121-0.0983 0.0000 ( 11160 PWs)   bands (ev):

   -60.2996 -34.6653 -34.4635 -34.4417 -11.8439 -11.6705  -5.1024  -4.6758
    -3.5269  -2.9165  -2.0132  -1.3713  -0.1118

          k =-0.5121 0.0002 0.0000 ( 11166 PWs)   bands (ev):

   -60.2996 -34.6397 -34.4683 -34.4635 -11.8514 -11.6637  -4.8983  -4.7027
    -3.2622  -2.9601  -2.6168  -1.2833  -0.1411

          k =-0.5121 0.0986 0.0000 ( 11158 PWs)   bands (ev):

   -60.2996 -34.6653 -34.4635 -34.4421 -11.8431 -11.6701  -5.1022  -4.6759
    -3.5255  -2.9169  -2.0154  -1.3719  -0.1113

          k =-0.5121 0.1971 0.0000 ( 11146 PWs)   bands (ev):

   -60.2995 -34.7036 -34.4634 -34.4022 -11.8268 -11.6831  -5.4407  -4.6176
    -3.7339  -2.8460  -1.5145  -1.0996  -0.1135

          k =-0.5121-0.8862 0.0000 ( 11142 PWs)   bands (ev):

   -60.2995 -34.7194 -34.4634 -34.3856 -11.8186 -11.6896  -5.5855  -4.5858
    -3.8018  -2.8220  -1.5665  -0.5005  -0.2902

     highest occupied level (ev):     0.3757

!    total energy              =    -489.75705704 Ry

     total all-electron energy =     -9688.214902 Ry
     estimated scf accuracy    <          5.4E-13 Ry

     The total energy is the sum of the following terms:
     one-electron contribution =    -813.90519924 Ry
     hartree contribution      =     410.77434409 Ry
     xc contribution           =     -29.52478620 Ry
     ewald contribution        =     255.78841210 Ry
     one-center paw contrib.   =    -312.88982780 Ry

     convergence has been achieved in  24 iterations

     negative rho (up, down):  1.990E-05 0.000E+00

     Forces acting on atoms (cartesian axes, Ry/au):

     atom    1 type  1   force =     0.00026869    0.00012905   -0.00000172
     atom    2 type  2   force =    -0.00013435   -0.00006452   -0.00031248
     atom    3 type  2   force =    -0.00013435   -0.00006452    0.00031420

     Total force =     0.000574     Total SCF correction =     0.000003


     Computing stress (Cartesian axis) and pressure


     negative rho (up, down):  1.990E-05 0.000E+00
          total   stress  (Ry/bohr**3)                   (kbar)     P=        0.55
   0.00000873  -0.00000085  -0.00000000            1.28       -0.13       -0.00
  -0.00000085   0.00000559   0.00000000           -0.13        0.82        0.00
  -0.00000000   0.00000000  -0.00000314           -0.00        0.00       -0.46


     Writing output data file /scratch/as3359/MoS2-CT/MoS2.save/
 
     init_run     :      6.38s CPU      3.54s WALL (       1 calls)
     electrons    :    189.67s CPU     97.91s WALL (       1 calls)
     forces       :      2.17s CPU      1.12s WALL (       1 calls)
     stress       :      6.23s CPU      3.21s WALL (       1 calls)

     Called by init_run:
     wfcinit      :      3.17s CPU      1.64s WALL (       1 calls)
     potinit      :      0.90s CPU      0.46s WALL (       1 calls)
     hinit0       :      2.02s CPU      1.27s WALL (       1 calls)

     Called by electrons:
     c_bands      :    149.40s CPU     76.20s WALL (      25 calls)
     sum_band     :     28.88s CPU     15.32s WALL (      25 calls)
     v_of_rho     :      2.19s CPU      1.14s WALL (      25 calls)
     newd         :      3.98s CPU      2.57s WALL (      25 calls)
     PAW_pot      :      4.61s CPU      2.37s WALL (      25 calls)
     mix_rho      :      0.69s CPU      0.36s WALL (      25 calls)

     Called by c_bands:
     init_us_2    :      5.30s CPU      2.69s WALL (    3922 calls)
     cegterg      :    139.69s CPU     71.24s WALL (    1850 calls)

     Called by *egterg:
     cdiaghg      :      3.08s CPU      1.58s WALL (    8305 calls)
     h_psi        :    120.37s CPU     61.45s WALL (    8453 calls)
     s_psi        :      3.23s CPU      1.64s WALL (    8453 calls)
     g_psi        :      0.99s CPU      0.50s WALL (    6529 calls)

     Called by h_psi:
     h_psi:calbec :      3.50s CPU      1.78s WALL (    8453 calls)
     vloc_psi     :    112.27s CPU     57.34s WALL (    8453 calls)
     add_vuspsi   :      3.53s CPU      1.79s WALL (    8453 calls)

     General routines
     calbec       :      4.56s CPU      2.33s WALL (   10673 calls)
     fft          :      1.11s CPU      0.57s WALL (     349 calls)
     ffts         :      0.11s CPU      0.06s WALL (      50 calls)
     fftw         :    112.66s CPU     57.55s WALL (  161056 calls)
     interpolate  :      0.20s CPU      0.11s WALL (      25 calls)
 
     Parallel routines
 
     PWSCF        :   3m25.67s CPU   1m46.94s WALL

 
   This run was terminated on:  11:56:17   6Apr2022            

=------------------------------------------------------------------------------=
   JOB DONE.
=------------------------------------------------------------------------------=
