
     Program PWSCF v.6.8 starts on  6Apr2022 at 12:44:55 

     This program is part of the open-source Quantum ESPRESSO suite
     for quantum simulation of materials; please cite
         "P. Giannozzi et al., J. Phys.:Condens. Matter 21 395502 (2009);
         "P. Giannozzi et al., J. Phys.:Condens. Matter 29 465901 (2017);
         "P. Giannozzi et al., J. Chem. Phys. 152 154105 (2020);
          URL http://www.quantum-espresso.org", 
     in publications or presentations arising from this work. More details at
     http://www.quantum-espresso.org/quote

     Parallel version (MPI & OpenMP), running on       4 processor cores
     Number of MPI processes:                 2
     Threads/MPI process:                     2

     MPI processes distributed on     1 nodes
     R & G space division:  proc/nbgrp/npool/nimage =       2
     125006 MiB available memory on the printing compute node when the environment starts
 
     Reading input from MoS2.scf.145.in

     Current dimensions of program PWSCF are:
     Max number of different atomic species (ntypx) = 10
     Max number of k-points (npk) =  40000
     Max angular momentum in pseudopotentials (lmaxx) =  4
     file Mo.pbesol-spn-kjpaw_psl.1.0.0.UPF: wavefunction(s)  4S 4D renormalized
     file S.pbesol-nl-kjpaw_psl.1.0.0.UPF: wavefunction(s)  3S renormalized

     Subspace diagonalization in iterative solution of the eigenvalue problem:
     a serial algorithm will be used

 
     Parallelization info
     --------------------
     sticks:   dense  smooth     PW     G-vecs:    dense   smooth      PW
     Min         882     702    210               152466   109041   17610
     Max         883     703    211               152471   109048   17625
     Sum        1765    1405    421               304937   218089   35235
 
     Using Slab Decomposition
 


     bravais-lattice index     =            0
     lattice parameter (alat)  =       6.0720  a.u.
     unit-cell volume          =     924.7995 (a.u.)^3
     number of atoms/cell      =            3
     number of atomic types    =            2
     number of electrons       =        26.00
     number of Kohn-Sham states=           13
     kinetic-energy cutoff     =     145.0000  Ry
     charge density cutoff     =     725.0000  Ry
     scf convergence threshold =      1.0E-12
     mixing beta               =       0.7000
     number of iterations used =            8  plain     mixing
     Exchange-correlation= SLA  PW   PSX  PSC
                           (   1   4  10   8   0   0   0)

     celldm(1)=   6.072000  celldm(2)=   0.000000  celldm(3)=   0.000000
     celldm(4)=   0.000000  celldm(5)=   0.000000  celldm(6)=   0.000000

     crystal axes: (cart. coord. in units of alat)
               a(1) = (   0.976384  -0.000017   0.000000 )  
               a(2) = (  -0.487931   0.846187   0.000000 )  
               a(3) = (   0.000000   0.000000   5.000000 )  

     reciprocal axes: (cart. coord. in units 2 pi/alat)
               b(1) = (  1.024198  0.590577  0.000000 )  
               b(2) = (  0.000021  1.181785  0.000000 )  
               b(3) = (  0.000000  0.000000  0.200000 )  


     PseudoPot. # 1 for Mo read from file:
     /shared/home/as3359/pseudo/Mo.pbesol-spn-kjpaw_psl.1.0.0.UPF
     MD5 check sum: de57925cfc675213e43241dcc441eda8
     Pseudo is Projector augmented-wave + core cor, Zval = 14.0
     Generated using &quot;atomic&quot; code by A. Dal Corso  v.6.3
     Shape of augmentation charge: PSQ
     Using radial grid of 1229 points,  6 beta functions with: 
                l(1) =   0
                l(2) =   0
                l(3) =   1
                l(4) =   1
                l(5) =   2
                l(6) =   2
     Q(r) pseudized with 0 coefficients 


     PseudoPot. # 2 for S  read from file:
     /shared/home/as3359/pseudo/S.pbesol-nl-kjpaw_psl.1.0.0.UPF
     MD5 check sum: bf3db50ec3f960682bbc396f1aadd1dd
     Pseudo is Projector augmented-wave + core cor, Zval =  6.0
     Generated using &quot;atomic&quot; code by A. Dal Corso  v.6.3
     Shape of augmentation charge: PSQ
     Using radial grid of 1151 points,  4 beta functions with: 
                l(1) =   0
                l(2) =   0
                l(3) =   1
                l(4) =   1
     Q(r) pseudized with 0 coefficients 


     atomic species   valence    mass     pseudopotential
        Mo            14.00    95.94000     Mo( 1.00)
        S              6.00    32.06500     S ( 1.00)

     No symmetry found



   Cartesian axes

     site n.     atom                  positions (alat units)
         1           Mo  tau(   1) = (   0.0000000   0.0000000   1.6880765  )
         2           S   tau(   2) = (   0.4883508   0.2821722   2.1737857  )
         3           S   tau(   3) = (   0.4883508   0.2821722   1.2023670  )

     number of k points=    74
                       cart. coord. in units 2pi/alat
        k(    1) = (   0.0000000   0.0000000   0.0000000), wk =   0.0138889
        k(    2) = (   0.0000017   0.0984820   0.0000000), wk =   0.0277778
        k(    3) = (   0.0000035   0.1969641   0.0000000), wk =   0.0277778
        k(    4) = (   0.0000052   0.2954461   0.0000000), wk =   0.0277778
        k(    5) = (   0.0000070   0.3939282   0.0000000), wk =   0.0277778
        k(    6) = (   0.0000087   0.4924102   0.0000000), wk =   0.0277778
        k(    7) = (  -0.0000105  -0.5908923   0.0000000), wk =   0.0138889
        k(    8) = (   0.0853498   0.0492147   0.0000000), wk =   0.0277778
        k(    9) = (   0.0853516   0.1476968   0.0000000), wk =   0.0277778
        k(   10) = (   0.0853533   0.2461788   0.0000000), wk =   0.0277778
        k(   11) = (   0.0853550   0.3446609   0.0000000), wk =   0.0277778
        k(   12) = (   0.0853568   0.4431429   0.0000000), wk =   0.0277778
        k(   13) = (   0.0853585   0.5416249   0.0000000), wk =   0.0277778
        k(   14) = (   0.0853394  -0.5416775   0.0000000), wk =   0.0277778
        k(   15) = (   0.0853411  -0.4431955   0.0000000), wk =   0.0277778
        k(   16) = (   0.0853428  -0.3447135   0.0000000), wk =   0.0277778
        k(   17) = (   0.0853446  -0.2462314   0.0000000), wk =   0.0277778
        k(   18) = (   0.0853463  -0.1477494   0.0000000), wk =   0.0277778
        k(   19) = (   0.0853481  -0.0492673   0.0000000), wk =   0.0277778
        k(   20) = (   0.1706996   0.0984294   0.0000000), wk =   0.0277778
        k(   21) = (   0.1707014   0.1969115   0.0000000), wk =   0.0277778
        k(   22) = (   0.1707031   0.2953935   0.0000000), wk =   0.0277778
        k(   23) = (   0.1707049   0.3938756   0.0000000), wk =   0.0277778
        k(   24) = (   0.1707066   0.4923576   0.0000000), wk =   0.0277778
        k(   25) = (   0.1707083   0.5908397   0.0000000), wk =   0.0277778
        k(   26) = (   0.1706892  -0.4924628   0.0000000), wk =   0.0277778
        k(   27) = (   0.1706909  -0.3939808   0.0000000), wk =   0.0277778
        k(   28) = (   0.1706927  -0.2954987   0.0000000), wk =   0.0277778
        k(   29) = (   0.1706944  -0.1970167   0.0000000), wk =   0.0277778
        k(   30) = (   0.1706961  -0.0985346   0.0000000), wk =   0.0277778
        k(   31) = (   0.1706979  -0.0000526   0.0000000), wk =   0.0277778
        k(   32) = (   0.2560494   0.1476442   0.0000000), wk =   0.0277778
        k(   33) = (   0.2560512   0.2461262   0.0000000), wk =   0.0277778
        k(   34) = (   0.2560529   0.3446082   0.0000000), wk =   0.0277778
        k(   35) = (   0.2560547   0.4430903   0.0000000), wk =   0.0277778
        k(   36) = (   0.2560564   0.5415723   0.0000000), wk =   0.0277778
        k(   37) = (   0.2560582   0.6400544   0.0000000), wk =   0.0277778
        k(   38) = (   0.2560390  -0.4432481   0.0000000), wk =   0.0277778
        k(   39) = (   0.2560407  -0.3447661   0.0000000), wk =   0.0277778
        k(   40) = (   0.2560425  -0.2462840   0.0000000), wk =   0.0277778
        k(   41) = (   0.2560442  -0.1478020   0.0000000), wk =   0.0277778
        k(   42) = (   0.2560460  -0.0493199   0.0000000), wk =   0.0277778
        k(   43) = (   0.2560477   0.0491621   0.0000000), wk =   0.0277778
        k(   44) = (   0.3413993   0.1968589   0.0000000), wk =   0.0277778
        k(   45) = (   0.3414010   0.2953409   0.0000000), wk =   0.0277778
        k(   46) = (   0.3414027   0.3938230   0.0000000), wk =   0.0277778
        k(   47) = (   0.3414045   0.4923050   0.0000000), wk =   0.0277778
        k(   48) = (   0.3414062   0.5907871   0.0000000), wk =   0.0277778
        k(   49) = (   0.3414080   0.6892691   0.0000000), wk =   0.0277778
        k(   50) = (   0.3413888  -0.3940334   0.0000000), wk =   0.0277778
        k(   51) = (   0.3413905  -0.2955513   0.0000000), wk =   0.0277778
        k(   52) = (   0.3413923  -0.1970693   0.0000000), wk =   0.0277778
        k(   53) = (   0.3413940  -0.0985872   0.0000000), wk =   0.0277778
        k(   54) = (   0.3413958  -0.0001052   0.0000000), wk =   0.0277778
        k(   55) = (   0.3413975   0.0983768   0.0000000), wk =   0.0277778
        k(   56) = (   0.4267491   0.2460736   0.0000000), wk =   0.0277778
        k(   57) = (   0.4267508   0.3445556   0.0000000), wk =   0.0277778
        k(   58) = (   0.4267526   0.4430377   0.0000000), wk =   0.0277778
        k(   59) = (   0.4267543   0.5415197   0.0000000), wk =   0.0277778
        k(   60) = (   0.4267560   0.6400018   0.0000000), wk =   0.0277778
        k(   61) = (   0.4267578   0.7384838   0.0000000), wk =   0.0277778
        k(   62) = (   0.4267386  -0.3448187   0.0000000), wk =   0.0277778
        k(   63) = (   0.4267404  -0.2463366   0.0000000), wk =   0.0277778
        k(   64) = (   0.4267421  -0.1478546   0.0000000), wk =   0.0277778
        k(   65) = (   0.4267438  -0.0493725   0.0000000), wk =   0.0277778
        k(   66) = (   0.4267456   0.0491095   0.0000000), wk =   0.0277778
        k(   67) = (   0.4267473   0.1475916   0.0000000), wk =   0.0277778
        k(   68) = (  -0.5120989  -0.2952883   0.0000000), wk =   0.0138889
        k(   69) = (  -0.5120971  -0.1968063   0.0000000), wk =   0.0277778
        k(   70) = (  -0.5120954  -0.0983242   0.0000000), wk =   0.0277778
        k(   71) = (  -0.5120937   0.0001578   0.0000000), wk =   0.0277778
        k(   72) = (  -0.5120919   0.0986398   0.0000000), wk =   0.0277778
        k(   73) = (  -0.5120902   0.1971219   0.0000000), wk =   0.0277778
        k(   74) = (  -0.5121093  -0.8861806   0.0000000), wk =   0.0138889

     Dense  grid:   304937 G-vectors     FFT dimensions: (  54,  54, 270)

     Smooth grid:   218089 G-vectors     FFT dimensions: (  45,  45, 240)

     Estimated max dynamical RAM per process >     776.61 MB

     Estimated total dynamical RAM >       1.52 GB

     Initial potential from superposition of free atoms

     starting charge   25.99914, renormalised to   26.00000

     negative rho (up, down):  3.007E-05 0.000E+00
     Starting wfcs are   18 randomized atomic wfcs
     Checking if some PAW data can be deallocated... 

     total cpu time spent up to now is        9.2 secs

     Self-consistent Calculation

     iteration #  1     ecut=   145.00 Ry     beta= 0.70
     Davidson diagonalization with overlap
     ethr =  1.00E-02,  avg # of iterations =  2.0

     Threshold (ethr) on eigenvalues was too large:
     Diagonalizing with lowered threshold

     Davidson diagonalization with overlap
     ethr =  3.44E-04,  avg # of iterations =  3.9

     negative rho (up, down):  5.012E-05 0.000E+00

     total cpu time spent up to now is       31.5 secs

     total energy              =    -489.69436345 Ry
     estimated scf accuracy    <       0.14212006 Ry

     iteration #  2     ecut=   145.00 Ry     beta= 0.70
     Davidson diagonalization with overlap
     ethr =  5.47E-04,  avg # of iterations =  5.2

     negative rho (up, down):  4.952E-05 0.000E+00

     total cpu time spent up to now is       46.1 secs

     total energy              =    -489.65048576 Ry
     estimated scf accuracy    <       0.55897870 Ry

     iteration #  3     ecut=   145.00 Ry     beta= 0.70
     Davidson diagonalization with overlap
     ethr =  5.47E-04,  avg # of iterations =  5.2

     negative rho (up, down):  5.144E-05 0.000E+00

     total cpu time spent up to now is       60.1 secs

     total energy              =    -489.75362030 Ry
     estimated scf accuracy    <       0.03095211 Ry

     iteration #  4     ecut=   145.00 Ry     beta= 0.70
     Davidson diagonalization with overlap
     ethr =  1.19E-04,  avg # of iterations =  2.4

     negative rho (up, down):  5.853E-05 0.000E+00

     total cpu time spent up to now is       70.2 secs

     total energy              =    -489.75551203 Ry
     estimated scf accuracy    <       0.00480215 Ry

     iteration #  5     ecut=   145.00 Ry     beta= 0.70
     Davidson diagonalization with overlap
     ethr =  1.85E-05,  avg # of iterations =  4.9

     negative rho (up, down):  5.922E-05 0.000E+00

     total cpu time spent up to now is       83.7 secs

     total energy              =    -489.75827490 Ry
     estimated scf accuracy    <       0.00454767 Ry

     iteration #  6     ecut=   145.00 Ry     beta= 0.70
     Davidson diagonalization with overlap
     ethr =  1.75E-05,  avg # of iterations =  1.0

     negative rho (up, down):  6.045E-05 0.000E+00

     total cpu time spent up to now is       92.2 secs

     total energy              =    -489.75753690 Ry
     estimated scf accuracy    <       0.00321086 Ry

     iteration #  7     ecut=   145.00 Ry     beta= 0.70
     Davidson diagonalization with overlap
     ethr =  1.23E-05,  avg # of iterations =  2.7

     negative rho (up, down):  6.144E-05 0.000E+00

     total cpu time spent up to now is      102.4 secs

     total energy              =    -489.75780260 Ry
     estimated scf accuracy    <       0.00042405 Ry

     iteration #  8     ecut=   145.00 Ry     beta= 0.70
     Davidson diagonalization with overlap
     ethr =  1.63E-06,  avg # of iterations =  4.6

     negative rho (up, down):  6.343E-05 0.000E+00

     total cpu time spent up to now is      114.5 secs

     total energy              =    -489.75791824 Ry
     estimated scf accuracy    <       0.00000941 Ry

     iteration #  9     ecut=   145.00 Ry     beta= 0.70
     Davidson diagonalization with overlap
     ethr =  3.62E-08,  avg # of iterations =  6.3

     negative rho (up, down):  6.347E-05 0.000E+00

     total cpu time spent up to now is      132.2 secs

     total energy              =    -489.75792795 Ry
     estimated scf accuracy    <       0.00010297 Ry

     iteration # 10     ecut=   145.00 Ry     beta= 0.70
     Davidson diagonalization with overlap
     ethr =  3.62E-08,  avg # of iterations =  4.7

     negative rho (up, down):  6.343E-05 0.000E+00

     total cpu time spent up to now is      145.8 secs

     total energy              =    -489.75791021 Ry
     estimated scf accuracy    <       0.00008197 Ry

     iteration # 11     ecut=   145.00 Ry     beta= 0.70
     Davidson diagonalization with overlap
     ethr =  3.62E-08,  avg # of iterations =  5.6

     negative rho (up, down):  6.357E-05 0.000E+00

     total cpu time spent up to now is      161.5 secs

     total energy              =    -489.75792195 Ry
     estimated scf accuracy    <       0.00001094 Ry

     iteration # 12     ecut=   145.00 Ry     beta= 0.70
     Davidson diagonalization with overlap
     ethr =  3.62E-08,  avg # of iterations =  2.7

     negative rho (up, down):  6.356E-05 0.000E+00

     total cpu time spent up to now is      171.9 secs

     total energy              =    -489.75792292 Ry
     estimated scf accuracy    <       0.00000087 Ry

     iteration # 13     ecut=   145.00 Ry     beta= 0.70
     Davidson diagonalization with overlap
     ethr =  3.36E-09,  avg # of iterations =  5.3

     negative rho (up, down):  6.358E-05 0.000E+00

     total cpu time spent up to now is      186.3 secs

     total energy              =    -489.75792332 Ry
     estimated scf accuracy    <       0.00000147 Ry

     iteration # 14     ecut=   145.00 Ry     beta= 0.70
     Davidson diagonalization with overlap
     ethr =  3.36E-09,  avg # of iterations =  2.0

     negative rho (up, down):  6.358E-05 0.000E+00

     total cpu time spent up to now is      195.9 secs

     total energy              =    -489.75792330 Ry
     estimated scf accuracy    <       0.00000050 Ry

     iteration # 15     ecut=   145.00 Ry     beta= 0.70
     Davidson diagonalization with overlap
     ethr =  1.92E-09,  avg # of iterations =  3.1

     negative rho (up, down):  6.358E-05 0.000E+00

     total cpu time spent up to now is      206.3 secs

     total energy              =    -489.75792336 Ry
     estimated scf accuracy    <       0.00000003 Ry

     iteration # 16     ecut=   145.00 Ry     beta= 0.70
     Davidson diagonalization with overlap
     ethr =  1.33E-10,  avg # of iterations =  4.9

     negative rho (up, down):  6.359E-05 0.000E+00

     total cpu time spent up to now is      219.3 secs

     total energy              =    -489.75792337 Ry
     estimated scf accuracy    <          9.0E-09 Ry

     iteration # 17     ecut=   145.00 Ry     beta= 0.70
     Davidson diagonalization with overlap
     ethr =  3.46E-11,  avg # of iterations =  2.8

     negative rho (up, down):  6.359E-05 0.000E+00

     total cpu time spent up to now is      229.7 secs

     total energy              =    -489.75792337 Ry
     estimated scf accuracy    <          3.4E-09 Ry

     iteration # 18     ecut=   145.00 Ry     beta= 0.70
     Davidson diagonalization with overlap
     ethr =  1.32E-11,  avg # of iterations =  4.1

     negative rho (up, down):  6.359E-05 0.000E+00

     total cpu time spent up to now is      241.2 secs

     total energy              =    -489.75792337 Ry
     estimated scf accuracy    <          3.0E-10 Ry

     iteration # 19     ecut=   145.00 Ry     beta= 0.70
     Davidson diagonalization with overlap
     ethr =  1.16E-12,  avg # of iterations =  5.4

     negative rho (up, down):  6.359E-05 0.000E+00

     total cpu time spent up to now is      255.6 secs

     total energy              =    -489.75792337 Ry
     estimated scf accuracy    <          3.9E-10 Ry

     iteration # 20     ecut=   145.00 Ry     beta= 0.70
     Davidson diagonalization with overlap
     ethr =  1.16E-12,  avg # of iterations =  2.2

     negative rho (up, down):  6.359E-05 0.000E+00

     total cpu time spent up to now is      265.3 secs

     total energy              =    -489.75792337 Ry
     estimated scf accuracy    <          2.0E-10 Ry

     iteration # 21     ecut=   145.00 Ry     beta= 0.70
     Davidson diagonalization with overlap
     ethr =  7.72E-13,  avg # of iterations =  2.5

     negative rho (up, down):  6.359E-05 0.000E+00

     total cpu time spent up to now is      275.2 secs

     total energy              =    -489.75792337 Ry
     estimated scf accuracy    <          4.4E-11 Ry

     iteration # 22     ecut=   145.00 Ry     beta= 0.70
     Davidson diagonalization with overlap
     ethr =  1.70E-13,  avg # of iterations =  4.6

     negative rho (up, down):  6.359E-05 0.000E+00

     total cpu time spent up to now is      288.4 secs

     total energy              =    -489.75792337 Ry
     estimated scf accuracy    <          3.9E-11 Ry

     iteration # 23     ecut=   145.00 Ry     beta= 0.70
     Davidson diagonalization with overlap
     ethr =  1.49E-13,  avg # of iterations =  1.7

     negative rho (up, down):  6.359E-05 0.000E+00

     total cpu time spent up to now is      297.5 secs

     total energy              =    -489.75792337 Ry
     estimated scf accuracy    <          1.3E-11 Ry

     iteration # 24     ecut=   145.00 Ry     beta= 0.70
     Davidson diagonalization with overlap
     ethr =  1.00E-13,  avg # of iterations =  3.1

     negative rho (up, down):  6.359E-05 0.000E+00

     total cpu time spent up to now is      308.2 secs

     total energy              =    -489.75792337 Ry
     estimated scf accuracy    <          3.5E-12 Ry

     iteration # 25     ecut=   145.00 Ry     beta= 0.70
     Davidson diagonalization with overlap
     ethr =  1.00E-13,  avg # of iterations =  1.8

     negative rho (up, down):  6.359E-05 0.000E+00

     total cpu time spent up to now is      317.3 secs

     total energy              =    -489.75792337 Ry
     estimated scf accuracy    <          4.1E-12 Ry

     iteration # 26     ecut=   145.00 Ry     beta= 0.70
     Davidson diagonalization with overlap
     ethr =  1.00E-13,  avg # of iterations =  1.0

     negative rho (up, down):  6.359E-05 0.000E+00

     total cpu time spent up to now is      325.8 secs

     total energy              =    -489.75792337 Ry
     estimated scf accuracy    <          2.9E-12 Ry

     iteration # 27     ecut=   145.00 Ry     beta= 0.70
     Davidson diagonalization with overlap
     ethr =  1.00E-13,  avg # of iterations =  1.0

     negative rho (up, down):  6.359E-05 0.000E+00

     total cpu time spent up to now is      334.4 secs

     total energy              =    -489.75792337 Ry
     estimated scf accuracy    <          1.3E-12 Ry

     iteration # 28     ecut=   145.00 Ry     beta= 0.70
     Davidson diagonalization with overlap
     ethr =  1.00E-13,  avg # of iterations =  1.0

     negative rho (up, down):  6.359E-05 0.000E+00

     total cpu time spent up to now is      342.9 secs

     End of self-consistent calculation

          k = 0.0000 0.0000 0.0000 ( 27289 PWs)   bands (ev):

   -60.3487 -34.5534 -34.2856 -34.2843 -13.8552 -12.5035  -5.4143  -2.2346
    -2.2258  -1.4938  -1.0736  -1.0671   0.2789

          k = 0.0000 0.0985 0.0000 ( 27333 PWs)   bands (ev):

   -60.3456 -34.5475 -34.3156 -34.2911 -13.7453 -12.4582  -5.2904  -2.4746
    -2.1114  -1.9584  -1.2405  -0.7776   0.2367

          k = 0.0000 0.1970 0.0000 ( 27318 PWs)   bands (ev):

   -60.3373 -34.5312 -34.3969 -34.3095 -13.4325 -12.3293  -4.9797  -3.0229
    -2.6261  -1.7910  -1.6470  -0.7040   0.0215

          k = 0.0000 0.2954 0.0000 ( 27274 PWs)   bands (ev):

   -60.3259 -34.5089 -34.5064 -34.3346 -12.9679 -12.1393  -4.7596  -3.4845
    -3.3109  -2.1006  -1.3425  -0.9771  -0.4115

          k = 0.0000 0.3939 0.0000 ( 27264 PWs)   bands (ev):

   -60.3144 -34.6140 -34.4865 -34.3595 -12.4426 -11.9294  -5.0167  -3.9457
    -3.5888  -2.4810  -1.3007  -0.8970  -0.6651

          k = 0.0000 0.4924 0.0000 ( 27276 PWs)   bands (ev):

   -60.3060 -34.6917 -34.4701 -34.3777 -12.0008 -11.7597  -5.4146  -4.4117
    -3.7136  -2.7276  -1.5046  -0.5932  -0.4739

          k =-0.0000-0.5909 0.0000 ( 27272 PWs)   bands (ev):

   -60.3030 -34.7199 -34.4640 -34.3843 -11.8218 -11.6934  -5.5871  -4.5845
    -3.8030  -2.8125  -1.5698  -0.4918  -0.2950

          k = 0.0853 0.0492 0.0000 ( 27339 PWs)   bands (ev):

   -60.3456 -34.5474 -34.3149 -34.2919 -13.7452 -12.4581  -5.2903  -2.4711
    -2.1154  -1.9562  -1.2459  -0.7748   0.2371

          k = 0.0854 0.1477 0.0000 ( 27329 PWs)   bands (ev):

   -60.3399 -34.5364 -34.3695 -34.3055 -13.5339 -12.3708  -5.0691  -2.8609
    -2.4003  -1.9033  -1.6499  -0.5821   0.1087

          k = 0.0854 0.2462 0.0000 ( 27305 PWs)   bands (ev):

   -60.3301 -34.5171 -34.4610 -34.3311 -13.1442 -12.2102  -4.7708  -3.3489
    -2.9634  -2.2308  -1.5737  -0.6198  -0.2246

          k = 0.0854 0.3447 0.0000 ( 27257 PWs)   bands (ev):

   -60.3186 -34.5649 -34.4947 -34.3607 -12.6453 -12.0067  -4.7989  -3.6378
    -3.5307  -2.6167  -1.3410  -0.9377  -0.5031

          k = 0.0854 0.4431 0.0000 ( 27245 PWs)   bands (ev):

   -60.3087 -34.6535 -34.4753 -34.3863 -12.1522 -11.8106  -5.1609  -4.2546
    -3.5839  -2.7873  -1.2949  -1.2408  -0.3610

          k = 0.0854 0.5416 0.0000 ( 27253 PWs)   bands (ev):

   -60.3030 -34.7041 -34.4641 -34.4010 -11.8299 -11.6867  -5.4416  -4.6159
    -3.7354  -2.8383  -1.5175  -1.0958  -0.1135

          k = 0.0853-0.5417 0.0000 ( 27247 PWs)   bands (ev):

   -60.3029 -34.7042 -34.4640 -34.4010 -11.8298 -11.6867  -5.4418  -4.6159
    -3.7354  -2.8388  -1.5170  -1.0950  -0.1145

          k = 0.0853-0.4432 0.0000 ( 27245 PWs)   bands (ev):

   -60.3087 -34.6536 -34.4753 -34.3863 -12.1519 -11.8105  -5.1613  -4.2544
    -3.5840  -2.7884  -1.2939  -1.2387  -0.3633

          k = 0.0853-0.3447 0.0000 ( 27255 PWs)   bands (ev):

   -60.3186 -34.5650 -34.4947 -34.3607 -12.6449 -12.0066  -4.7991  -3.6378
    -3.5307  -2.6173  -1.3392  -0.9368  -0.5054

          k = 0.0853-0.2462 0.0000 ( 27303 PWs)   bands (ev):

   -60.3300 -34.5170 -34.4611 -34.3312 -13.1438 -12.2101  -4.7706  -3.3483
    -2.9643  -2.2302  -1.5742  -0.6195  -0.2255

          k = 0.0853-0.1477 0.0000 ( 27333 PWs)   bands (ev):

   -60.3399 -34.5363 -34.3694 -34.3058 -13.5337 -12.3707  -5.0689  -2.8588
    -2.4013  -1.9059  -1.6489  -0.5821   0.1086

          k = 0.0853-0.0493 0.0000 ( 27331 PWs)   bands (ev):

   -60.3456 -34.5474 -34.3146 -34.2923 -13.7452 -12.4581  -5.2902  -2.4680
    -2.1188  -1.9566  -1.2456  -0.7748   0.2371

          k = 0.1707 0.0984 0.0000 ( 27316 PWs)   bands (ev):

   -60.3373 -34.5312 -34.3963 -34.3104 -13.4322 -12.3288  -4.9795  -3.0203
    -2.6233  -1.7948  -1.6528  -0.7025   0.0232

          k = 0.1707 0.1969 0.0000 ( 27307 PWs)   bands (ev):

   -60.3300 -34.5170 -34.4607 -34.3316 -13.1439 -12.2098  -4.7708  -3.3474
    -2.9612  -2.2345  -1.5758  -0.6198  -0.2233

          k = 0.1707 0.2954 0.0000 ( 27271 PWs)   bands (ev):

   -60.3201 -34.5395 -34.4977 -34.3688 -12.7171 -12.0329  -4.6895  -3.4871
    -3.3882  -2.8933  -1.5785  -0.6546  -0.4346

          k = 0.1707 0.3939 0.0000 ( 27236 PWs)   bands (ev):

   -60.3102 -34.6134 -34.4783 -34.4100 -12.2399 -11.8351  -4.8884  -4.1145
    -3.3892  -3.0079  -1.8997  -0.9772  -0.3637

          k = 0.1707 0.4924 0.0000 ( 27244 PWs)   bands (ev):

   -60.3029 -34.6656 -34.4641 -34.4414 -11.8458 -11.6730  -5.1012  -4.6737
    -3.5275  -2.9126  -2.0140  -1.3740  -0.1094

          k = 0.1707 0.5908 0.0000 ( 27238 PWs)   bands (ev):

   -60.3003 -34.6845 -34.4588 -34.4530 -11.6889 -11.6091  -5.1812  -4.8775
    -3.6692  -2.8311  -1.9983  -1.5662   0.0716

          k = 0.1707-0.4925 0.0000 ( 27248 PWs)   bands (ev):

   -60.3029 -34.6658 -34.4640 -34.4413 -11.8453 -11.6728  -5.1019  -4.6736
    -3.5278  -2.9137  -2.0123  -1.3731  -0.1110

          k = 0.1707-0.3940 0.0000 ( 27239 PWs)   bands (ev):

   -60.3102 -34.6137 -34.4783 -34.4100 -12.2391 -11.8349  -4.8892  -4.1142
    -3.3893  -3.0093  -1.8976  -0.9762  -0.3661

          k = 0.1707-0.2955 0.0000 ( 27277 PWs)   bands (ev):

   -60.3201 -34.5397 -34.4977 -34.3690 -12.7164 -12.0326  -4.6896  -3.4863
    -3.3883  -2.8940  -1.5779  -0.6539  -0.4369

          k = 0.1707-0.1970 0.0000 ( 27305 PWs)   bands (ev):

   -60.3300 -34.5170 -34.4607 -34.3319 -13.1433 -12.2096  -4.7704  -3.3457
    -2.9618  -2.2345  -1.5779  -0.6193  -0.2240

          k = 0.1707-0.0985 0.0000 ( 27320 PWs)   bands (ev):

   -60.3372 -34.5311 -34.3961 -34.3108 -13.4319 -12.3286  -4.9792  -3.0180
    -2.6236  -1.7980  -1.6535  -0.7018   0.0233

          k = 0.1707-0.0001 0.0000 ( 27347 PWs)   bands (ev):

   -60.3399 -34.5363 -34.3688 -34.3065 -13.5334 -12.3704  -5.0687  -2.8570
    -2.3995  -1.9089  -1.6524  -0.5812   0.1096

          k = 0.2560 0.1476 0.0000 ( 27276 PWs)   bands (ev):

   -60.3258 -34.5088 -34.5059 -34.3356 -12.9672 -12.1381  -4.7597  -3.4821
    -3.3087  -2.1068  -1.3464  -0.9762  -0.4087

          k = 0.2561 0.2461 0.0000 ( 27253 PWs)   bands (ev):

   -60.3186 -34.5645 -34.4947 -34.3615 -12.6447 -12.0056  -4.7988  -3.6361
    -3.5286  -2.6214  -1.3437  -0.9375  -0.5016

          k = 0.2561 0.3446 0.0000 ( 27235 PWs)   bands (ev):

   -60.3102 -34.6132 -34.4783 -34.4104 -12.2396 -11.8344  -4.8881  -4.1143
    -3.3882  -3.0097  -1.9011  -0.9771  -0.3633

          k = 0.2561 0.4431 0.0000 ( 27263 PWs)   bands (ev):

   -60.3029 -34.6397 -34.4683 -34.4640 -11.8535 -11.6656  -4.8956  -4.7008
    -3.2618  -2.9581  -2.6205  -1.2850  -0.1374

          k = 0.2561 0.5416 0.0000 ( 27251 PWs)   bands (ev):

   -60.2987 -34.6453 -34.5116 -34.4558 -11.6121 -11.5569  -5.0667  -4.7707
    -3.5326  -2.8883  -2.7486  -1.6396   0.1798

          k = 0.2561 0.6401 0.0000 ( 27253 PWs)   bands (ev):

   -60.2987 -34.6455 -34.5115 -34.4558 -11.6117 -11.5568  -5.0667  -4.7713
    -3.5330  -2.8872  -2.7492  -1.6392   0.1791

          k = 0.2560-0.4432 0.0000 ( 27267 PWs)   bands (ev):

   -60.3029 -34.6400 -34.4684 -34.4640 -11.8525 -11.6653  -4.8966  -4.7007
    -3.2622  -2.9594  -2.6187  -1.2843  -0.1390

          k = 0.2560-0.3448 0.0000 ( 27235 PWs)   bands (ev):

   -60.3101 -34.6134 -34.4782 -34.4106 -12.2384 -11.8340  -4.8888  -4.1141
    -3.3870  -3.0113  -1.9007  -0.9764  -0.3655

          k = 0.2560-0.2463 0.0000 ( 27247 PWs)   bands (ev):

   -60.3185 -34.5645 -34.4946 -34.3619 -12.6437 -12.0052  -4.7988  -3.6359
    -3.5266  -2.6231  -1.3446  -0.9369  -0.5035

          k = 0.2560-0.1478 0.0000 ( 27270 PWs)   bands (ev):

   -60.3258 -34.5088 -34.5058 -34.3360 -12.9665 -12.1378  -4.7593  -3.4799
    -3.3086  -2.1084  -1.3492  -0.9755  -0.4087

          k = 0.2560-0.0493 0.0000 ( 27305 PWs)   bands (ev):

   -60.3300 -34.5170 -34.4605 -34.3323 -13.1429 -12.2090  -4.7702  -3.3460
    -2.9621  -2.2352  -1.5783  -0.6191  -0.2234

          k = 0.2560 0.0492 0.0000 ( 27305 PWs)   bands (ev):

   -60.3300 -34.5170 -34.4606 -34.3320 -13.1432 -12.2091  -4.7704  -3.3472
    -2.9623  -2.2345  -1.5767  -0.6193  -0.2236

          k = 0.3414 0.1969 0.0000 ( 27262 PWs)   bands (ev):

   -60.3143 -34.6136 -34.4864 -34.3606 -12.4416 -11.9274  -5.0165  -3.9452
    -3.5869  -2.4877  -1.2991  -0.9014  -0.6619

          k = 0.3414 0.2953 0.0000 ( 27244 PWs)   bands (ev):

   -60.3086 -34.6531 -34.4752 -34.3873 -12.1513 -11.8087  -5.1601  -4.2548
    -3.5828  -2.7923  -1.2938  -1.2431  -0.3601

          k = 0.3414 0.3938 0.0000 ( 27240 PWs)   bands (ev):

   -60.3029 -34.6654 -34.4640 -34.4421 -11.8451 -11.6714  -5.1003  -4.6748
    -3.5270  -2.9153  -2.0164  -1.3730  -0.1082

          k = 0.3414 0.4923 0.0000 ( 27259 PWs)   bands (ev):

   -60.2987 -34.6451 -34.5120 -34.4558 -11.6117 -11.5561  -5.0676  -4.7703
    -3.5322  -2.8898  -2.7499  -1.6387   0.1803

          k = 0.3414 0.5908 0.0000 ( 27282 PWs)   bands (ev):

   -60.2971 -34.6128 -34.5627 -34.4528 -11.5243 -11.5099  -5.2234  -4.3603
    -3.8338  -3.2102  -2.5872  -1.8344   0.3755

          k = 0.3414 0.6893 0.0000 ( 27263 PWs)   bands (ev):

   -60.2986 -34.6453 -34.5121 -34.4557 -11.6109 -11.5558  -5.0677  -4.7709
    -3.5317  -2.8899  -2.7507  -1.6386   0.1798

          k = 0.3414-0.3940 0.0000 ( 27246 PWs)   bands (ev):

   -60.3028 -34.6655 -34.4639 -34.4424 -11.8438 -11.6709  -5.1009  -4.6748
    -3.5259  -2.9169  -2.0169  -1.3727  -0.1093

          k = 0.3414-0.2956 0.0000 ( 27244 PWs)   bands (ev):

   -60.3086 -34.6532 -34.4751 -34.3877 -12.1499 -11.8081  -5.1602  -4.2544
    -3.5810  -2.7946  -1.2933  -1.2438  -0.3621

          k = 0.3414-0.1971 0.0000 ( 27262 PWs)   bands (ev):

   -60.3143 -34.6136 -34.4863 -34.3611 -12.4405 -11.9269  -5.0163  -3.9449
    -3.5847  -2.4899  -1.2988  -0.9041  -0.6621

          k = 0.3414-0.0986 0.0000 ( 27255 PWs)   bands (ev):

   -60.3185 -34.5646 -34.4946 -34.3620 -12.6432 -12.0046  -4.7992  -3.6372
    -3.5274  -2.6228  -1.3429  -0.9367  -0.5046

          k = 0.3414-0.0001 0.0000 ( 27271 PWs)   bands (ev):

   -60.3200 -34.5396 -34.4976 -34.3695 -12.7156 -12.0314  -4.6900  -3.4869
    -3.3897  -2.8948  -1.5765  -0.6537  -0.4375

          k = 0.3414 0.0984 0.0000 ( 27253 PWs)   bands (ev):

   -60.3185 -34.5647 -34.4946 -34.3617 -12.6438 -12.0049  -4.7994  -3.6374
    -3.5294  -2.6218  -1.3402  -0.9365  -0.5049

          k = 0.4267 0.2461 0.0000 ( 27282 PWs)   bands (ev):

   -60.3059 -34.6914 -34.4699 -34.3788 -11.9994 -11.7570  -5.4137  -4.4127
    -3.7130  -2.7346  -1.5020  -0.5986  -0.4702

          k = 0.4268 0.3446 0.0000 ( 27255 PWs)   bands (ev):

   -60.3029 -34.7039 -34.4639 -34.4021 -11.8287 -11.6841  -5.4404  -4.6175
    -3.7353  -2.8439  -1.5151  -1.0988  -0.1120

          k = 0.4268 0.4430 0.0000 ( 27248 PWs)   bands (ev):

   -60.3002 -34.6843 -34.4587 -34.4539 -11.6878 -11.6069  -5.1805  -4.8795
    -3.6691  -2.8346  -2.0007  -1.5640   0.0725

          k = 0.4268 0.5415 0.0000 ( 27261 PWs)   bands (ev):

   -60.2986 -34.6454 -34.5120 -34.4557 -11.6109 -11.5554  -5.0684  -4.7721
    -3.5320  -2.8883  -2.7510  -1.6377   0.1783

          k = 0.4268 0.6400 0.0000 ( 27263 PWs)   bands (ev):

   -60.2986 -34.6454 -34.5122 -34.4557 -11.6105 -11.5552  -5.0685  -4.7721
    -3.5312  -2.8894  -2.7511  -1.6380   0.1785

          k = 0.4268 0.7385 0.0000 ( 27244 PWs)   bands (ev):

   -60.3001 -34.6844 -34.4587 -34.4542 -11.6866 -11.6064  -5.1806  -4.8797
    -3.6682  -2.8356  -2.0023  -1.5644   0.0726

          k = 0.4267-0.3448 0.0000 ( 27260 PWs)   bands (ev):

   -60.3028 -34.7040 -34.4638 -34.4026 -11.8271 -11.6834  -5.4404  -4.6174
    -3.7342  -2.8461  -1.5149  -1.1003  -0.1127

          k = 0.4267-0.2463 0.0000 ( 27282 PWs)   bands (ev):

   -60.3059 -34.6915 -34.4698 -34.3793 -11.9979 -11.7563  -5.4135  -4.4124
    -3.7115  -2.7371  -1.5018  -0.6015  -0.4699

          k = 0.4267-0.1479 0.0000 ( 27248 PWs)   bands (ev):

   -60.3085 -34.6534 -34.4751 -34.3878 -12.1495 -11.8076  -5.1611  -4.2555
    -3.5810  -2.7946  -1.2929  -1.2423  -0.3637

          k = 0.4267-0.0494 0.0000 ( 27235 PWs)   bands (ev):

   -60.3101 -34.6136 -34.4781 -34.4109 -12.2376 -11.8328  -4.8903  -4.1163
    -3.3876  -3.0112  -1.8979  -0.9759  -0.3677

          k = 0.4267 0.0491 0.0000 ( 27230 PWs)   bands (ev):

   -60.3101 -34.6136 -34.4782 -34.4106 -12.2379 -11.8330  -4.8903  -4.1163
    -3.3889  -3.0109  -1.8963  -0.9755  -0.3679

          k = 0.4267 0.1476 0.0000 ( 27249 PWs)   bands (ev):

   -60.3086 -34.6534 -34.4752 -34.3873 -12.1506 -11.8081  -5.1614  -4.2556
    -3.5829  -2.7933  -1.2923  -1.2395  -0.3640

          k =-0.5121-0.2953 0.0000 ( 27264 PWs)   bands (ev):

   -60.3028 -34.7197 -34.4639 -34.3854 -11.8204 -11.6904  -5.5858  -4.5862
    -3.8031  -2.8195  -1.5667  -0.4976  -0.2911

          k =-0.5121-0.1968 0.0000 ( 27252 PWs)   bands (ev):

   -60.3028 -34.7040 -34.4639 -34.4021 -11.8284 -11.6838  -5.4410  -4.6178
    -3.7352  -2.8445  -1.5143  -1.0974  -0.1140

          k =-0.5121-0.0983 0.0000 ( 27242 PWs)   bands (ev):

   -60.3028 -34.6657 -34.4639 -34.4421 -11.8440 -11.6706  -5.1025  -4.6759
    -3.5270  -2.9166  -2.0133  -1.3714  -0.1120

          k =-0.5121 0.0002 0.0000 ( 27271 PWs)   bands (ev):

   -60.3028 -34.6401 -34.4687 -34.4639 -11.8515 -11.6638  -4.8985  -4.7029
    -3.2623  -2.9602  -2.6169  -1.2834  -0.1413

          k =-0.5121 0.0986 0.0000 ( 27242 PWs)   bands (ev):

   -60.3028 -34.6657 -34.4639 -34.4425 -11.8432 -11.6702  -5.1024  -4.6761
    -3.5256  -2.9170  -2.0155  -1.3721  -0.1115

          k =-0.5121 0.1971 0.0000 ( 27254 PWs)   bands (ev):

   -60.3028 -34.7040 -34.4638 -34.4026 -11.8269 -11.6832  -5.4408  -4.6177
    -3.7340  -2.8462  -1.5147  -1.0997  -0.1137

          k =-0.5121-0.8862 0.0000 ( 27260 PWs)   bands (ev):

   -60.3028 -34.7198 -34.4638 -34.3860 -11.8187 -11.6897  -5.5856  -4.5859
    -3.8019  -2.8222  -1.5666  -0.5006  -0.2904

     highest occupied level (ev):     0.3755

!    total energy              =    -489.75792337 Ry

     total all-electron energy =     -9688.215769 Ry
     estimated scf accuracy    <          1.8E-13 Ry

     The total energy is the sum of the following terms:
     one-electron contribution =    -813.90631714 Ry
     hartree contribution      =     410.77420927 Ry
     xc contribution           =     -29.52474388 Ry
     ewald contribution        =     255.78841210 Ry
     one-center paw contrib.   =    -312.88948373 Ry

     convergence has been achieved in  28 iterations

     negative rho (up, down):  6.359E-05 0.000E+00

     Forces acting on atoms (cartesian axes, Ry/au):

     atom    1 type  1   force =     0.00026866    0.00012894   -0.00000130
     atom    2 type  2   force =    -0.00013433   -0.00006446   -0.00032535
     atom    3 type  2   force =    -0.00013432   -0.00006448    0.00032665

     Total force =     0.000588     Total SCF correction =     0.000001


     Computing stress (Cartesian axis) and pressure


     negative rho (up, down):  6.359E-05 0.000E+00
          total   stress  (Ry/bohr**3)                   (kbar)     P=        0.64
   0.00000932  -0.00000085  -0.00000000            1.37       -0.13       -0.00
  -0.00000085   0.00000618  -0.00000000           -0.13        0.91       -0.00
  -0.00000000  -0.00000000  -0.00000252           -0.00       -0.00       -0.37


     Writing output data file /scratch/as3359/MoS2-CT/MoS2.save/
 
     init_run     :     16.03s CPU      9.01s WALL (       1 calls)
     electrons    :    651.97s CPU    333.75s WALL (       1 calls)
     forces       :      5.69s CPU      2.92s WALL (       1 calls)
     stress       :     16.10s CPU      8.28s WALL (       1 calls)

     Called by init_run:
     wfcinit      :      9.24s CPU      4.72s WALL (       1 calls)
     potinit      :      2.00s CPU      1.03s WALL (       1 calls)
     hinit0       :      4.06s CPU      2.84s WALL (       1 calls)

     Called by electrons:
     c_bands      :    527.06s CPU    266.74s WALL (      29 calls)
     sum_band     :     97.38s CPU     50.93s WALL (      29 calls)
     v_of_rho     :      7.30s CPU      3.97s WALL (      29 calls)
     newd         :     11.81s CPU      7.65s WALL (      29 calls)
     PAW_pot      :      5.62s CPU      2.90s WALL (      29 calls)
     mix_rho      :      2.60s CPU      1.51s WALL (      29 calls)

     Called by c_bands:
     init_us_2    :     18.67s CPU      9.35s WALL (    4514 calls)
     cegterg      :    496.35s CPU    251.14s WALL (    2146 calls)

     Called by *egterg:
     cdiaghg      :      4.03s CPU      2.05s WALL (    9300 calls)
     h_psi        :    430.64s CPU    218.11s WALL (    9448 calls)
     s_psi        :     15.07s CPU      7.58s WALL (    9448 calls)
     g_psi        :      2.94s CPU      1.48s WALL (    7228 calls)

     Called by h_psi:
     h_psi:calbec :     13.41s CPU      6.76s WALL (    9448 calls)
     vloc_psi     :    392.60s CPU    198.99s WALL (    9448 calls)
     add_vuspsi   :     20.91s CPU     10.49s WALL (    9448 calls)

     General routines
     calbec       :     17.28s CPU      8.71s WALL (   11964 calls)
     fft          :      3.56s CPU      1.82s WALL (     401 calls)
     ffts         :      0.35s CPU      0.18s WALL (      58 calls)
     fftw         :    398.34s CPU    201.99s WALL (  187232 calls)
     interpolate  :      0.64s CPU      0.33s WALL (      29 calls)
 
     Parallel routines
 
     PWSCF        :  11m31.35s CPU   5m55.37s WALL

 
   This run was terminated on:  12:50:51   6Apr2022            

=------------------------------------------------------------------------------=
   JOB DONE.
=------------------------------------------------------------------------------=
