
     Program PWSCF v.6.8 starts on  6Apr2022 at 11:50:52 

     This program is part of the open-source Quantum ESPRESSO suite
     for quantum simulation of materials; please cite
         "P. Giannozzi et al., J. Phys.:Condens. Matter 21 395502 (2009);
         "P. Giannozzi et al., J. Phys.:Condens. Matter 29 465901 (2017);
         "P. Giannozzi et al., J. Chem. Phys. 152 154105 (2020);
          URL http://www.quantum-espresso.org", 
     in publications or presentations arising from this work. More details at
     http://www.quantum-espresso.org/quote

     Parallel version (MPI & OpenMP), running on       4 processor cores
     Number of MPI processes:                 2
     Threads/MPI process:                     2

     MPI processes distributed on     1 nodes
     R & G space division:  proc/nbgrp/npool/nimage =       2
     125215 MiB available memory on the printing compute node when the environment starts
 
     Reading input from MoS2.scf.70.in

     Current dimensions of program PWSCF are:
     Max number of different atomic species (ntypx) = 10
     Max number of k-points (npk) =  40000
     Max angular momentum in pseudopotentials (lmaxx) =  4
     file Mo.pbesol-spn-kjpaw_psl.1.0.0.UPF: wavefunction(s)  4S 4D renormalized
     file S.pbesol-nl-kjpaw_psl.1.0.0.UPF: wavefunction(s)  3S renormalized

     Subspace diagonalization in iterative solution of the eigenvalue problem:
     a serial algorithm will be used

 
     Parallelization info
     --------------------
     sticks:   dense  smooth     PW     G-vecs:    dense   smooth      PW
     Min         423     336    105                51193    36558    6517
     Max         424     337    106                51218    36579    6524
     Sum         847     673    211               102411    73137   13041
 
     Using Slab Decomposition
 


     bravais-lattice index     =            0
     lattice parameter (alat)  =       6.0720  a.u.
     unit-cell volume          =     924.7995 (a.u.)^3
     number of atoms/cell      =            3
     number of atomic types    =            2
     number of electrons       =        26.00
     number of Kohn-Sham states=           13
     kinetic-energy cutoff     =      70.0000  Ry
     charge density cutoff     =     350.0000  Ry
     scf convergence threshold =      1.0E-12
     mixing beta               =       0.7000
     number of iterations used =            8  plain     mixing
     Exchange-correlation= SLA  PW   PSX  PSC
                           (   1   4  10   8   0   0   0)

     celldm(1)=   6.072000  celldm(2)=   0.000000  celldm(3)=   0.000000
     celldm(4)=   0.000000  celldm(5)=   0.000000  celldm(6)=   0.000000

     crystal axes: (cart. coord. in units of alat)
               a(1) = (   0.976384  -0.000017   0.000000 )  
               a(2) = (  -0.487931   0.846187   0.000000 )  
               a(3) = (   0.000000   0.000000   5.000000 )  

     reciprocal axes: (cart. coord. in units 2 pi/alat)
               b(1) = (  1.024198  0.590577  0.000000 )  
               b(2) = (  0.000021  1.181785  0.000000 )  
               b(3) = (  0.000000  0.000000  0.200000 )  


     PseudoPot. # 1 for Mo read from file:
     /shared/home/as3359/pseudo/Mo.pbesol-spn-kjpaw_psl.1.0.0.UPF
     MD5 check sum: de57925cfc675213e43241dcc441eda8
     Pseudo is Projector augmented-wave + core cor, Zval = 14.0
     Generated using &quot;atomic&quot; code by A. Dal Corso  v.6.3
     Shape of augmentation charge: PSQ
     Using radial grid of 1229 points,  6 beta functions with: 
                l(1) =   0
                l(2) =   0
                l(3) =   1
                l(4) =   1
                l(5) =   2
                l(6) =   2
     Q(r) pseudized with 0 coefficients 


     PseudoPot. # 2 for S  read from file:
     /shared/home/as3359/pseudo/S.pbesol-nl-kjpaw_psl.1.0.0.UPF
     MD5 check sum: bf3db50ec3f960682bbc396f1aadd1dd
     Pseudo is Projector augmented-wave + core cor, Zval =  6.0
     Generated using &quot;atomic&quot; code by A. Dal Corso  v.6.3
     Shape of augmentation charge: PSQ
     Using radial grid of 1151 points,  4 beta functions with: 
                l(1) =   0
                l(2) =   0
                l(3) =   1
                l(4) =   1
     Q(r) pseudized with 0 coefficients 


     atomic species   valence    mass     pseudopotential
        Mo            14.00    95.94000     Mo( 1.00)
        S              6.00    32.06500     S ( 1.00)

     No symmetry found



   Cartesian axes

     site n.     atom                  positions (alat units)
         1           Mo  tau(   1) = (   0.0000000   0.0000000   1.6880765  )
         2           S   tau(   2) = (   0.4883508   0.2821722   2.1737857  )
         3           S   tau(   3) = (   0.4883508   0.2821722   1.2023670  )

     number of k points=    74
                       cart. coord. in units 2pi/alat
        k(    1) = (   0.0000000   0.0000000   0.0000000), wk =   0.0138889
        k(    2) = (   0.0000017   0.0984820   0.0000000), wk =   0.0277778
        k(    3) = (   0.0000035   0.1969641   0.0000000), wk =   0.0277778
        k(    4) = (   0.0000052   0.2954461   0.0000000), wk =   0.0277778
        k(    5) = (   0.0000070   0.3939282   0.0000000), wk =   0.0277778
        k(    6) = (   0.0000087   0.4924102   0.0000000), wk =   0.0277778
        k(    7) = (  -0.0000105  -0.5908923   0.0000000), wk =   0.0138889
        k(    8) = (   0.0853498   0.0492147   0.0000000), wk =   0.0277778
        k(    9) = (   0.0853516   0.1476968   0.0000000), wk =   0.0277778
        k(   10) = (   0.0853533   0.2461788   0.0000000), wk =   0.0277778
        k(   11) = (   0.0853550   0.3446609   0.0000000), wk =   0.0277778
        k(   12) = (   0.0853568   0.4431429   0.0000000), wk =   0.0277778
        k(   13) = (   0.0853585   0.5416249   0.0000000), wk =   0.0277778
        k(   14) = (   0.0853394  -0.5416775   0.0000000), wk =   0.0277778
        k(   15) = (   0.0853411  -0.4431955   0.0000000), wk =   0.0277778
        k(   16) = (   0.0853428  -0.3447135   0.0000000), wk =   0.0277778
        k(   17) = (   0.0853446  -0.2462314   0.0000000), wk =   0.0277778
        k(   18) = (   0.0853463  -0.1477494   0.0000000), wk =   0.0277778
        k(   19) = (   0.0853481  -0.0492673   0.0000000), wk =   0.0277778
        k(   20) = (   0.1706996   0.0984294   0.0000000), wk =   0.0277778
        k(   21) = (   0.1707014   0.1969115   0.0000000), wk =   0.0277778
        k(   22) = (   0.1707031   0.2953935   0.0000000), wk =   0.0277778
        k(   23) = (   0.1707049   0.3938756   0.0000000), wk =   0.0277778
        k(   24) = (   0.1707066   0.4923576   0.0000000), wk =   0.0277778
        k(   25) = (   0.1707083   0.5908397   0.0000000), wk =   0.0277778
        k(   26) = (   0.1706892  -0.4924628   0.0000000), wk =   0.0277778
        k(   27) = (   0.1706909  -0.3939808   0.0000000), wk =   0.0277778
        k(   28) = (   0.1706927  -0.2954987   0.0000000), wk =   0.0277778
        k(   29) = (   0.1706944  -0.1970167   0.0000000), wk =   0.0277778
        k(   30) = (   0.1706961  -0.0985346   0.0000000), wk =   0.0277778
        k(   31) = (   0.1706979  -0.0000526   0.0000000), wk =   0.0277778
        k(   32) = (   0.2560494   0.1476442   0.0000000), wk =   0.0277778
        k(   33) = (   0.2560512   0.2461262   0.0000000), wk =   0.0277778
        k(   34) = (   0.2560529   0.3446082   0.0000000), wk =   0.0277778
        k(   35) = (   0.2560547   0.4430903   0.0000000), wk =   0.0277778
        k(   36) = (   0.2560564   0.5415723   0.0000000), wk =   0.0277778
        k(   37) = (   0.2560582   0.6400544   0.0000000), wk =   0.0277778
        k(   38) = (   0.2560390  -0.4432481   0.0000000), wk =   0.0277778
        k(   39) = (   0.2560407  -0.3447661   0.0000000), wk =   0.0277778
        k(   40) = (   0.2560425  -0.2462840   0.0000000), wk =   0.0277778
        k(   41) = (   0.2560442  -0.1478020   0.0000000), wk =   0.0277778
        k(   42) = (   0.2560460  -0.0493199   0.0000000), wk =   0.0277778
        k(   43) = (   0.2560477   0.0491621   0.0000000), wk =   0.0277778
        k(   44) = (   0.3413993   0.1968589   0.0000000), wk =   0.0277778
        k(   45) = (   0.3414010   0.2953409   0.0000000), wk =   0.0277778
        k(   46) = (   0.3414027   0.3938230   0.0000000), wk =   0.0277778
        k(   47) = (   0.3414045   0.4923050   0.0000000), wk =   0.0277778
        k(   48) = (   0.3414062   0.5907871   0.0000000), wk =   0.0277778
        k(   49) = (   0.3414080   0.6892691   0.0000000), wk =   0.0277778
        k(   50) = (   0.3413888  -0.3940334   0.0000000), wk =   0.0277778
        k(   51) = (   0.3413905  -0.2955513   0.0000000), wk =   0.0277778
        k(   52) = (   0.3413923  -0.1970693   0.0000000), wk =   0.0277778
        k(   53) = (   0.3413940  -0.0985872   0.0000000), wk =   0.0277778
        k(   54) = (   0.3413958  -0.0001052   0.0000000), wk =   0.0277778
        k(   55) = (   0.3413975   0.0983768   0.0000000), wk =   0.0277778
        k(   56) = (   0.4267491   0.2460736   0.0000000), wk =   0.0277778
        k(   57) = (   0.4267508   0.3445556   0.0000000), wk =   0.0277778
        k(   58) = (   0.4267526   0.4430377   0.0000000), wk =   0.0277778
        k(   59) = (   0.4267543   0.5415197   0.0000000), wk =   0.0277778
        k(   60) = (   0.4267560   0.6400018   0.0000000), wk =   0.0277778
        k(   61) = (   0.4267578   0.7384838   0.0000000), wk =   0.0277778
        k(   62) = (   0.4267386  -0.3448187   0.0000000), wk =   0.0277778
        k(   63) = (   0.4267404  -0.2463366   0.0000000), wk =   0.0277778
        k(   64) = (   0.4267421  -0.1478546   0.0000000), wk =   0.0277778
        k(   65) = (   0.4267438  -0.0493725   0.0000000), wk =   0.0277778
        k(   66) = (   0.4267456   0.0491095   0.0000000), wk =   0.0277778
        k(   67) = (   0.4267473   0.1475916   0.0000000), wk =   0.0277778
        k(   68) = (  -0.5120989  -0.2952883   0.0000000), wk =   0.0138889
        k(   69) = (  -0.5120971  -0.1968063   0.0000000), wk =   0.0277778
        k(   70) = (  -0.5120954  -0.0983242   0.0000000), wk =   0.0277778
        k(   71) = (  -0.5120937   0.0001578   0.0000000), wk =   0.0277778
        k(   72) = (  -0.5120919   0.0986398   0.0000000), wk =   0.0277778
        k(   73) = (  -0.5120902   0.1971219   0.0000000), wk =   0.0277778
        k(   74) = (  -0.5121093  -0.8861806   0.0000000), wk =   0.0138889

     Dense  grid:   102411 G-vectors     FFT dimensions: (  36,  36, 192)

     Smooth grid:    73137 G-vectors     FFT dimensions: (  32,  32, 162)

     Estimated max dynamical RAM per process >     261.79 MB

     Estimated total dynamical RAM >     523.57 MB

     Initial potential from superposition of free atoms

     starting charge   25.99914, renormalised to   26.00000

     negative rho (up, down):  4.506E-04 0.000E+00
     Starting wfcs are   18 randomized atomic wfcs
     Checking if some PAW data can be deallocated... 

     total cpu time spent up to now is        3.0 secs

     Self-consistent Calculation

     iteration #  1     ecut=    70.00 Ry     beta= 0.70
     Davidson diagonalization with overlap
     ethr =  1.00E-02,  avg # of iterations =  2.0

     Threshold (ethr) on eigenvalues was too large:
     Diagonalizing with lowered threshold

     Davidson diagonalization with overlap
     ethr =  3.46E-04,  avg # of iterations =  3.9

     negative rho (up, down):  4.982E-04 0.000E+00

     total cpu time spent up to now is        8.9 secs

     total energy              =    -489.69274863 Ry
     estimated scf accuracy    <       0.14285275 Ry

     iteration #  2     ecut=    70.00 Ry     beta= 0.70
     Davidson diagonalization with overlap
     ethr =  5.49E-04,  avg # of iterations =  5.2

     negative rho (up, down):  4.716E-04 0.000E+00

     total cpu time spent up to now is       12.7 secs

     total energy              =    -489.64836368 Ry
     estimated scf accuracy    <       0.56500479 Ry

     iteration #  3     ecut=    70.00 Ry     beta= 0.70
     Davidson diagonalization with overlap
     ethr =  5.49E-04,  avg # of iterations =  5.2

     negative rho (up, down):  4.683E-04 0.000E+00

     total cpu time spent up to now is       16.4 secs

     total energy              =    -489.75221257 Ry
     estimated scf accuracy    <       0.03235629 Ry

     iteration #  4     ecut=    70.00 Ry     beta= 0.70
     Davidson diagonalization with overlap
     ethr =  1.24E-04,  avg # of iterations =  2.5

     negative rho (up, down):  4.805E-04 0.000E+00

     total cpu time spent up to now is       19.2 secs

     total energy              =    -489.75457739 Ry
     estimated scf accuracy    <       0.00442740 Ry

     iteration #  5     ecut=    70.00 Ry     beta= 0.70
     Davidson diagonalization with overlap
     ethr =  1.70E-05,  avg # of iterations =  4.9

     negative rho (up, down):  4.827E-04 0.000E+00

     total cpu time spent up to now is       22.8 secs

     total energy              =    -489.75713765 Ry
     estimated scf accuracy    <       0.00411395 Ry

     iteration #  6     ecut=    70.00 Ry     beta= 0.70
     Davidson diagonalization with overlap
     ethr =  1.58E-05,  avg # of iterations =  1.0

     negative rho (up, down):  4.858E-04 0.000E+00

     total cpu time spent up to now is       25.2 secs

     total energy              =    -489.75647697 Ry
     estimated scf accuracy    <       0.00289133 Ry

     iteration #  7     ecut=    70.00 Ry     beta= 0.70
     Davidson diagonalization with overlap
     ethr =  1.11E-05,  avg # of iterations =  2.7

     negative rho (up, down):  4.876E-04 0.000E+00

     total cpu time spent up to now is       28.0 secs

     total energy              =    -489.75672268 Ry
     estimated scf accuracy    <       0.00038465 Ry

     iteration #  8     ecut=    70.00 Ry     beta= 0.70
     Davidson diagonalization with overlap
     ethr =  1.48E-06,  avg # of iterations =  4.6

     negative rho (up, down):  4.901E-04 0.000E+00

     total cpu time spent up to now is       31.3 secs

     total energy              =    -489.75682588 Ry
     estimated scf accuracy    <       0.00001423 Ry

     iteration #  9     ecut=    70.00 Ry     beta= 0.70
     Davidson diagonalization with overlap
     ethr =  5.47E-08,  avg # of iterations =  5.7

     negative rho (up, down):  4.903E-04 0.000E+00

     total cpu time spent up to now is       35.4 secs

     total energy              =    -489.75683506 Ry
     estimated scf accuracy    <       0.00007224 Ry

     iteration # 10     ecut=    70.00 Ry     beta= 0.70
     Davidson diagonalization with overlap
     ethr =  5.47E-08,  avg # of iterations =  4.2

     negative rho (up, down):  4.900E-04 0.000E+00

     total cpu time spent up to now is       38.9 secs

     total energy              =    -489.75681924 Ry
     estimated scf accuracy    <       0.00007489 Ry

     iteration # 11     ecut=    70.00 Ry     beta= 0.70
     Davidson diagonalization with overlap
     ethr =  5.47E-08,  avg # of iterations =  5.0

     negative rho (up, down):  4.902E-04 0.000E+00

     total cpu time spent up to now is       42.6 secs

     total energy              =    -489.75682918 Ry
     estimated scf accuracy    <       0.00001388 Ry

     iteration # 12     ecut=    70.00 Ry     beta= 0.70
     Davidson diagonalization with overlap
     ethr =  5.34E-08,  avg # of iterations =  2.5

     negative rho (up, down):  4.902E-04 0.000E+00

     total cpu time spent up to now is       45.4 secs

     total energy              =    -489.75683042 Ry
     estimated scf accuracy    <       0.00000164 Ry

     iteration # 13     ecut=    70.00 Ry     beta= 0.70
     Davidson diagonalization with overlap
     ethr =  6.30E-09,  avg # of iterations =  4.9

     negative rho (up, down):  4.902E-04 0.000E+00

     total cpu time spent up to now is       49.0 secs

     total energy              =    -489.75683106 Ry
     estimated scf accuracy    <       0.00000142 Ry

     iteration # 14     ecut=    70.00 Ry     beta= 0.70
     Davidson diagonalization with overlap
     ethr =  5.46E-09,  avg # of iterations =  1.6

     negative rho (up, down):  4.902E-04 0.000E+00

     total cpu time spent up to now is       51.5 secs

     total energy              =    -489.75683101 Ry
     estimated scf accuracy    <       0.00000050 Ry

     iteration # 15     ecut=    70.00 Ry     beta= 0.70
     Davidson diagonalization with overlap
     ethr =  1.91E-09,  avg # of iterations =  3.5

     negative rho (up, down):  4.902E-04 0.000E+00

     total cpu time spent up to now is       54.5 secs

     total energy              =    -489.75683110 Ry
     estimated scf accuracy    <          4.9E-09 Ry

     iteration # 16     ecut=    70.00 Ry     beta= 0.70
     Davidson diagonalization with overlap
     ethr =  1.89E-11,  avg # of iterations =  6.1

     negative rho (up, down):  4.903E-04 0.000E+00

     total cpu time spent up to now is       58.6 secs

     total energy              =    -489.75683110 Ry
     estimated scf accuracy    <       0.00000003 Ry

     iteration # 17     ecut=    70.00 Ry     beta= 0.70
     Davidson diagonalization with overlap
     ethr =  1.89E-11,  avg # of iterations =  5.5

     negative rho (up, down):  4.903E-04 0.000E+00

     total cpu time spent up to now is       62.6 secs

     total energy              =    -489.75683111 Ry
     estimated scf accuracy    <          6.5E-09 Ry

     iteration # 18     ecut=    70.00 Ry     beta= 0.70
     Davidson diagonalization with overlap
     ethr =  1.89E-11,  avg # of iterations =  1.0

     negative rho (up, down):  4.903E-04 0.000E+00

     total cpu time spent up to now is       65.0 secs

     total energy              =    -489.75683111 Ry
     estimated scf accuracy    <          8.8E-09 Ry

     iteration # 19     ecut=    70.00 Ry     beta= 0.70
     Davidson diagonalization with overlap
     ethr =  1.89E-11,  avg # of iterations =  1.1

     negative rho (up, down):  4.903E-04 0.000E+00

     total cpu time spent up to now is       67.4 secs

     total energy              =    -489.75683111 Ry
     estimated scf accuracy    <          5.1E-09 Ry

     iteration # 20     ecut=    70.00 Ry     beta= 0.70
     Davidson diagonalization with overlap
     ethr =  1.89E-11,  avg # of iterations =  2.4

     negative rho (up, down):  4.903E-04 0.000E+00

     total cpu time spent up to now is       70.0 secs

     total energy              =    -489.75683111 Ry
     estimated scf accuracy    <          8.9E-10 Ry

     iteration # 21     ecut=    70.00 Ry     beta= 0.70
     Davidson diagonalization with overlap
     ethr =  3.43E-12,  avg # of iterations =  3.7

     negative rho (up, down):  4.903E-04 0.000E+00

     total cpu time spent up to now is       73.0 secs

     total energy              =    -489.75683111 Ry
     estimated scf accuracy    <          8.8E-11 Ry

     iteration # 22     ecut=    70.00 Ry     beta= 0.70
     Davidson diagonalization with overlap
     ethr =  3.40E-13,  avg # of iterations =  5.0

     negative rho (up, down):  4.903E-04 0.000E+00

     total cpu time spent up to now is       76.5 secs

     total energy              =    -489.75683111 Ry
     estimated scf accuracy    <          3.6E-11 Ry

     iteration # 23     ecut=    70.00 Ry     beta= 0.70
     Davidson diagonalization with overlap
     ethr =  1.37E-13,  avg # of iterations =  2.2

     negative rho (up, down):  4.903E-04 0.000E+00

     total cpu time spent up to now is       79.1 secs

     total energy              =    -489.75683111 Ry
     estimated scf accuracy    <          4.5E-11 Ry

     iteration # 24     ecut=    70.00 Ry     beta= 0.70
     Davidson diagonalization with overlap
     ethr =  1.37E-13,  avg # of iterations =  1.4

     negative rho (up, down):  4.903E-04 0.000E+00

     total cpu time spent up to now is       81.5 secs

     total energy              =    -489.75683111 Ry
     estimated scf accuracy    <          2.1E-11 Ry

     iteration # 25     ecut=    70.00 Ry     beta= 0.70
     Davidson diagonalization with overlap
     ethr =  1.00E-13,  avg # of iterations =  2.2

     negative rho (up, down):  4.903E-04 0.000E+00

     total cpu time spent up to now is       84.2 secs

     total energy              =    -489.75683111 Ry
     estimated scf accuracy    <          2.1E-12 Ry

     iteration # 26     ecut=    70.00 Ry     beta= 0.70
     Davidson diagonalization with overlap
     ethr =  1.00E-13,  avg # of iterations =  1.0

     negative rho (up, down):  4.903E-04 0.000E+00

     total cpu time spent up to now is       86.5 secs

     total energy              =    -489.75683111 Ry
     estimated scf accuracy    <          1.6E-12 Ry

     iteration # 27     ecut=    70.00 Ry     beta= 0.70
     Davidson diagonalization with overlap
     ethr =  1.00E-13,  avg # of iterations =  1.0

     negative rho (up, down):  4.903E-04 0.000E+00

     total cpu time spent up to now is       88.9 secs

     total energy              =    -489.75683111 Ry
     estimated scf accuracy    <          1.0E-12 Ry

     iteration # 28     ecut=    70.00 Ry     beta= 0.70
     Davidson diagonalization with overlap
     ethr =  1.00E-13,  avg # of iterations =  1.0

     negative rho (up, down):  4.903E-04 0.000E+00

     total cpu time spent up to now is       91.2 secs

     End of self-consistent calculation

          k = 0.0000 0.0000 0.0000 (  9123 PWs)   bands (ev):

   -60.3467 -34.5541 -34.2864 -34.2851 -13.8558 -12.5042  -5.4149  -2.2352
    -2.2265  -1.4945  -1.0741  -1.0677   0.2782

          k = 0.0000 0.0985 0.0000 (  9113 PWs)   bands (ev):

   -60.3436 -34.5482 -34.3164 -34.2919 -13.7459 -12.4589  -5.2909  -2.4752
    -2.1120  -1.9590  -1.2411  -0.7783   0.2360

          k = 0.0000 0.1970 0.0000 (  9106 PWs)   bands (ev):

   -60.3353 -34.5319 -34.3977 -34.3103 -13.4332 -12.3299  -4.9803  -3.0235
    -2.6267  -1.7916  -1.6476  -0.7046   0.0209

          k = 0.0000 0.2954 0.0000 (  9138 PWs)   bands (ev):

   -60.3238 -34.5096 -34.5071 -34.3353 -12.9685 -12.1399  -4.7602  -3.4850
    -3.3115  -2.1011  -1.3431  -0.9777  -0.4120

          k = 0.0000 0.3939 0.0000 (  9152 PWs)   bands (ev):

   -60.3124 -34.6148 -34.4873 -34.3603 -12.4433 -11.9300  -5.0173  -3.9463
    -3.5893  -2.4816  -1.3013  -0.8976  -0.6657

          k = 0.0000 0.4924 0.0000 (  9170 PWs)   bands (ev):

   -60.3040 -34.6925 -34.4708 -34.3784 -12.0014 -11.7603  -5.4152  -4.4123
    -3.7142  -2.7282  -1.5052  -0.5938  -0.4745

          k =-0.0000-0.5909 0.0000 (  9138 PWs)   bands (ev):

   -60.3009 -34.7207 -34.4648 -34.3850 -11.8225 -11.6941  -5.5877  -4.5851
    -3.8036  -2.8131  -1.5704  -0.4924  -0.2956

          k = 0.0853 0.0492 0.0000 (  9113 PWs)   bands (ev):

   -60.3436 -34.5482 -34.3157 -34.2927 -13.7458 -12.4587  -5.2909  -2.4717
    -2.1160  -1.9568  -1.2465  -0.7754   0.2364

          k = 0.0854 0.1477 0.0000 (  9084 PWs)   bands (ev):

   -60.3379 -34.5371 -34.3703 -34.3063 -13.5345 -12.3715  -5.0697  -2.8615
    -2.4009  -1.9039  -1.6505  -0.5827   0.1081

          k = 0.0854 0.2462 0.0000 (  9114 PWs)   bands (ev):

   -60.3280 -34.5178 -34.4618 -34.3318 -13.1448 -12.2109  -4.7714  -3.3495
    -2.9640  -2.2313  -1.5743  -0.6205  -0.2251

          k = 0.0854 0.3447 0.0000 (  9140 PWs)   bands (ev):

   -60.3166 -34.5656 -34.4955 -34.3615 -12.6459 -12.0074  -4.7995  -3.6384
    -3.5312  -2.6173  -1.3416  -0.9383  -0.5036

          k = 0.0854 0.4431 0.0000 (  9151 PWs)   bands (ev):

   -60.3067 -34.6542 -34.4760 -34.3871 -12.1529 -11.8112  -5.1615  -4.2552
    -3.5845  -2.7879  -1.2955  -1.2414  -0.3615

          k = 0.0854 0.5416 0.0000 (  9166 PWs)   bands (ev):

   -60.3009 -34.7049 -34.4648 -34.4018 -11.8306 -11.6873  -5.4422  -4.6166
    -3.7360  -2.8388  -1.5180  -1.0964  -0.1140

          k = 0.0853-0.5417 0.0000 (  9162 PWs)   bands (ev):

   -60.3009 -34.7049 -34.4648 -34.4018 -11.8304 -11.6873  -5.4424  -4.6165
    -3.7360  -2.8394  -1.5175  -1.0956  -0.1151

          k = 0.0853-0.4432 0.0000 (  9147 PWs)   bands (ev):

   -60.3066 -34.6543 -34.4760 -34.3870 -12.1525 -11.8111  -5.1619  -4.2550
    -3.5846  -2.7890  -1.2944  -1.2393  -0.3638

          k = 0.0853-0.3447 0.0000 (  9140 PWs)   bands (ev):

   -60.3166 -34.5658 -34.4954 -34.3615 -12.6455 -12.0072  -4.7997  -3.6384
    -3.5313  -2.6179  -1.3398  -0.9374  -0.5059

          k = 0.0853-0.2462 0.0000 (  9114 PWs)   bands (ev):

   -60.3280 -34.5178 -34.4618 -34.3319 -13.1444 -12.2107  -4.7712  -3.3489
    -2.9649  -2.2307  -1.5748  -0.6201  -0.2260

          k = 0.0853-0.1477 0.0000 (  9084 PWs)   bands (ev):

   -60.3379 -34.5371 -34.3701 -34.3065 -13.5343 -12.3714  -5.0694  -2.8594
    -2.4019  -1.9066  -1.6494  -0.5828   0.1080

          k = 0.0853-0.0493 0.0000 (  9109 PWs)   bands (ev):

   -60.3436 -34.5482 -34.3153 -34.2930 -13.7458 -12.4587  -5.2908  -2.4686
    -2.1194  -1.9572  -1.2461  -0.7754   0.2364

          k = 0.1707 0.0984 0.0000 (  9106 PWs)   bands (ev):

   -60.3352 -34.5319 -34.3970 -34.3112 -13.4328 -12.3294  -4.9801  -3.0209
    -2.6239  -1.7954  -1.6534  -0.7031   0.0226

          k = 0.1707 0.1969 0.0000 (  9110 PWs)   bands (ev):

   -60.3280 -34.5178 -34.4615 -34.3323 -13.1445 -12.2104  -4.7714  -3.3480
    -2.9618  -2.2350  -1.5764  -0.6204  -0.2239

          k = 0.1707 0.2954 0.0000 (  9150 PWs)   bands (ev):

   -60.3181 -34.5402 -34.4985 -34.3696 -12.7178 -12.0336  -4.6901  -3.4876
    -3.3888  -2.8939  -1.5791  -0.6552  -0.4352

          k = 0.1707 0.3939 0.0000 (  9148 PWs)   bands (ev):

   -60.3082 -34.6141 -34.4791 -34.4107 -12.2405 -11.8357  -4.8891  -4.1151
    -3.3898  -3.0085  -1.9003  -0.9778  -0.3643

          k = 0.1707 0.4924 0.0000 (  9167 PWs)   bands (ev):

   -60.3009 -34.6664 -34.4648 -34.4421 -11.8465 -11.6736  -5.1018  -4.6744
    -3.5281  -2.9132  -2.0146  -1.3746  -0.1099

          k = 0.1707 0.5908 0.0000 (  9180 PWs)   bands (ev):

   -60.2982 -34.6853 -34.4596 -34.4538 -11.6896 -11.6097  -5.1818  -4.8781
    -3.6698  -2.8317  -1.9989  -1.5667   0.0710

          k = 0.1707-0.4925 0.0000 (  9163 PWs)   bands (ev):

   -60.3009 -34.6666 -34.4648 -34.4421 -11.8460 -11.6735  -5.1026  -4.6742
    -3.5284  -2.9143  -2.0129  -1.3736  -0.1116

          k = 0.1707-0.3940 0.0000 (  9150 PWs)   bands (ev):

   -60.3081 -34.6144 -34.4790 -34.4107 -12.2398 -11.8355  -4.8898  -4.1149
    -3.3899  -3.0098  -1.8982  -0.9767  -0.3666

          k = 0.1707-0.2955 0.0000 (  9152 PWs)   bands (ev):

   -60.3181 -34.5404 -34.4984 -34.3697 -12.7170 -12.0333  -4.6902  -3.4869
    -3.3889  -2.8946  -1.5785  -0.6545  -0.4374

          k = 0.1707-0.1970 0.0000 (  9108 PWs)   bands (ev):

   -60.3280 -34.5177 -34.4614 -34.3326 -13.1439 -12.2102  -4.7710  -3.3462
    -2.9624  -2.2351  -1.5785  -0.6199  -0.2245

          k = 0.1707-0.0985 0.0000 (  9106 PWs)   bands (ev):

   -60.3352 -34.5319 -34.3968 -34.3115 -13.4325 -12.3293  -4.9798  -3.0186
    -2.6242  -1.7986  -1.6540  -0.7024   0.0227

          k = 0.1707-0.0001 0.0000 (  9086 PWs)   bands (ev):

   -60.3379 -34.5371 -34.3696 -34.3072 -13.5340 -12.3710  -5.0693  -2.8576
    -2.4000  -1.9095  -1.6530  -0.5819   0.1090

          k = 0.2560 0.1476 0.0000 (  9136 PWs)   bands (ev):

   -60.3238 -34.5096 -34.5066 -34.3363 -12.9678 -12.1387  -4.7603  -3.4827
    -3.3093  -2.1074  -1.3470  -0.9768  -0.4092

          k = 0.2561 0.2461 0.0000 (  9132 PWs)   bands (ev):

   -60.3165 -34.5652 -34.4954 -34.3623 -12.6453 -12.0063  -4.7995  -3.6367
    -3.5291  -2.6220  -1.3443  -0.9381  -0.5021

          k = 0.2561 0.3446 0.0000 (  9146 PWs)   bands (ev):

   -60.3081 -34.6139 -34.4790 -34.4112 -12.2402 -11.8350  -4.8888  -4.1149
    -3.3888  -3.0103  -1.9017  -0.9777  -0.3639

          k = 0.2561 0.4431 0.0000 (  9160 PWs)   bands (ev):

   -60.3009 -34.6405 -34.4691 -34.4648 -11.8541 -11.6662  -4.8962  -4.7014
    -3.2624  -2.9586  -2.6211  -1.2856  -0.1380

          k = 0.2561 0.5416 0.0000 (  9168 PWs)   bands (ev):

   -60.2967 -34.6461 -34.5123 -34.4566 -11.6128 -11.5575  -5.0673  -4.7713
    -3.5332  -2.8889  -2.7492  -1.6401   0.1792

          k = 0.2561 0.6401 0.0000 (  9168 PWs)   bands (ev):

   -60.2966 -34.6462 -34.5123 -34.4565 -11.6124 -11.5574  -5.0673  -4.7719
    -3.5336  -2.8878  -2.7498  -1.6397   0.1785

          k = 0.2560-0.4432 0.0000 (  9160 PWs)   bands (ev):

   -60.3008 -34.6408 -34.4691 -34.4647 -11.8532 -11.6659  -4.8973  -4.7013
    -3.2627  -2.9599  -2.6193  -1.2849  -0.1396

          k = 0.2560-0.3448 0.0000 (  9148 PWs)   bands (ev):

   -60.3081 -34.6142 -34.4789 -34.4114 -12.2391 -11.8346  -4.8894  -4.1147
    -3.3875  -3.0119  -1.9013  -0.9770  -0.3660

          k = 0.2560-0.2463 0.0000 (  9129 PWs)   bands (ev):

   -60.3165 -34.5653 -34.4953 -34.3626 -12.6443 -12.0059  -4.7994  -3.6365
    -3.5272  -2.6237  -1.3452  -0.9375  -0.5041

          k = 0.2560-0.1478 0.0000 (  9134 PWs)   bands (ev):

   -60.3237 -34.5095 -34.5065 -34.3367 -12.9671 -12.1385  -4.7599  -3.4805
    -3.3092  -2.1089  -1.3498  -0.9761  -0.4093

          k = 0.2560-0.0493 0.0000 (  9110 PWs)   bands (ev):

   -60.3279 -34.5177 -34.4613 -34.3330 -13.1436 -12.2096  -4.7708  -3.3466
    -2.9627  -2.2358  -1.5789  -0.6197  -0.2239

          k = 0.2560 0.0492 0.0000 (  9114 PWs)   bands (ev):

   -60.3279 -34.5177 -34.4614 -34.3328 -13.1438 -12.2097  -4.7710  -3.3478
    -2.9629  -2.2351  -1.5773  -0.6199  -0.2241

          k = 0.3414 0.1969 0.0000 (  9153 PWs)   bands (ev):

   -60.3123 -34.6144 -34.4872 -34.3613 -12.4422 -11.9280  -5.0171  -3.9458
    -3.5875  -2.4883  -1.2997  -0.9020  -0.6624

          k = 0.3414 0.2953 0.0000 (  9147 PWs)   bands (ev):

   -60.3066 -34.6539 -34.4760 -34.3880 -12.1520 -11.8093  -5.1607  -4.2554
    -3.5834  -2.7929  -1.2943  -1.2437  -0.3607

          k = 0.3414 0.3938 0.0000 (  9161 PWs)   bands (ev):

   -60.3008 -34.6661 -34.4647 -34.4428 -11.8458 -11.6721  -5.1009  -4.6755
    -3.5276  -2.9159  -2.0170  -1.3735  -0.1087

          k = 0.3414 0.4923 0.0000 (  9174 PWs)   bands (ev):

   -60.2966 -34.6459 -34.5127 -34.4565 -11.6124 -11.5567  -5.0682  -4.7709
    -3.5328  -2.8904  -2.7505  -1.6392   0.1798

          k = 0.3414 0.5908 0.0000 (  9196 PWs)   bands (ev):

   -60.2951 -34.6135 -34.5635 -34.4535 -11.5250 -11.5106  -5.2240  -4.3609
    -3.8345  -3.2108  -2.5879  -1.8349   0.3750

          k = 0.3414 0.6893 0.0000 (  9172 PWs)   bands (ev):

   -60.2966 -34.6460 -34.5128 -34.4565 -11.6115 -11.5564  -5.0683  -4.7715
    -3.5323  -2.8905  -2.7513  -1.6391   0.1792

          k = 0.3414-0.3940 0.0000 (  9161 PWs)   bands (ev):

   -60.3008 -34.6663 -34.4647 -34.4431 -11.8445 -11.6716  -5.1015  -4.6754
    -3.5264  -2.9175  -2.0175  -1.3732  -0.1099

          k = 0.3414-0.2956 0.0000 (  9143 PWs)   bands (ev):

   -60.3065 -34.6540 -34.4759 -34.3885 -12.1506 -11.8087  -5.1609  -4.2551
    -3.5816  -2.7952  -1.2939  -1.2444  -0.3626

          k = 0.3414-0.1971 0.0000 (  9149 PWs)   bands (ev):

   -60.3122 -34.6144 -34.4871 -34.3618 -12.4411 -11.9276  -5.0170  -3.9455
    -3.5853  -2.4905  -1.2993  -0.9047  -0.6626

          k = 0.3414-0.0986 0.0000 (  9133 PWs)   bands (ev):

   -60.3165 -34.5654 -34.4953 -34.3628 -12.6439 -12.0052  -4.7999  -3.6377
    -3.5279  -2.6233  -1.3435  -0.9373  -0.5051

          k = 0.3414-0.0001 0.0000 (  9150 PWs)   bands (ev):

   -60.3180 -34.5403 -34.4983 -34.3702 -12.7162 -12.0321  -4.6906  -3.4874
    -3.3903  -2.8954  -1.5771  -0.6543  -0.4380

          k = 0.3414 0.0984 0.0000 (  9134 PWs)   bands (ev):

   -60.3165 -34.5655 -34.4954 -34.3624 -12.6445 -12.0055  -4.8000  -3.6380
    -3.5299  -2.6223  -1.3408  -0.9370  -0.5055

          k = 0.4267 0.2461 0.0000 (  9164 PWs)   bands (ev):

   -60.3039 -34.6922 -34.4707 -34.3795 -12.0001 -11.7576  -5.4143  -4.4133
    -3.7136  -2.7352  -1.5025  -0.5992  -0.4708

          k = 0.4268 0.3446 0.0000 (  9160 PWs)   bands (ev):

   -60.3008 -34.7046 -34.4647 -34.4028 -11.8293 -11.6847  -5.4409  -4.6182
    -3.7359  -2.8444  -1.5156  -1.0994  -0.1126

          k = 0.4268 0.4430 0.0000 (  9182 PWs)   bands (ev):

   -60.2981 -34.6851 -34.4595 -34.4546 -11.6885 -11.6075  -5.1811  -4.8802
    -3.6697  -2.8352  -2.0013  -1.5646   0.0720

          k = 0.4268 0.5415 0.0000 (  9176 PWs)   bands (ev):

   -60.2966 -34.6461 -34.5128 -34.4565 -11.6116 -11.5560  -5.0690  -4.7727
    -3.5326  -2.8889  -2.7516  -1.6382   0.1778

          k = 0.4268 0.6400 0.0000 (  9174 PWs)   bands (ev):

   -60.2966 -34.6461 -34.5129 -34.4564 -11.6111 -11.5558  -5.0691  -4.7727
    -3.5318  -2.8900  -2.7517  -1.6385   0.1780

          k = 0.4268 0.7385 0.0000 (  9182 PWs)   bands (ev):

   -60.2981 -34.6851 -34.4594 -34.4550 -11.6873 -11.6070  -5.1812  -4.8803
    -3.6688  -2.8362  -2.0029  -1.5649   0.0721

          k = 0.4267-0.3448 0.0000 (  9160 PWs)   bands (ev):

   -60.3007 -34.7047 -34.4646 -34.4033 -11.8277 -11.6840  -5.4410  -4.6180
    -3.7347  -2.8467  -1.5155  -1.1009  -0.1133

          k = 0.4267-0.2463 0.0000 (  9162 PWs)   bands (ev):

   -60.3038 -34.6923 -34.4706 -34.3801 -11.9986 -11.7570  -5.4141  -4.4130
    -3.7121  -2.7377  -1.5024  -0.6021  -0.4705

          k = 0.4267-0.1479 0.0000 (  9137 PWs)   bands (ev):

   -60.3065 -34.6541 -34.4758 -34.3885 -12.1502 -11.8082  -5.1618  -4.2561
    -3.5816  -2.7951  -1.2934  -1.2429  -0.3643

          k = 0.4267-0.0494 0.0000 (  9150 PWs)   bands (ev):

   -60.3080 -34.6143 -34.4789 -34.4116 -12.2382 -11.8335  -4.8909  -4.1169
    -3.3881  -3.0118  -1.8986  -0.9765  -0.3683

          k = 0.4267 0.0491 0.0000 (  9150 PWs)   bands (ev):

   -60.3081 -34.6144 -34.4789 -34.4114 -12.2386 -11.8336  -4.8910  -4.1169
    -3.3895  -3.0115  -1.8969  -0.9761  -0.3685

          k = 0.4267 0.1476 0.0000 (  9141 PWs)   bands (ev):

   -60.3065 -34.6541 -34.4759 -34.3880 -12.1512 -11.8087  -5.1620  -4.2562
    -3.5835  -2.7939  -1.2928  -1.2401  -0.3646

          k =-0.5121-0.2953 0.0000 (  9142 PWs)   bands (ev):

   -60.3008 -34.7204 -34.4646 -34.3862 -11.8210 -11.6911  -5.5864  -4.5868
    -3.8037  -2.8201  -1.5672  -0.4982  -0.2917

          k =-0.5121-0.1968 0.0000 (  9162 PWs)   bands (ev):

   -60.3008 -34.7047 -34.4647 -34.4028 -11.8290 -11.6845  -5.4416  -4.6184
    -3.7358  -2.8451  -1.5148  -1.0980  -0.1146

          k =-0.5121-0.0983 0.0000 (  9159 PWs)   bands (ev):

   -60.3008 -34.6665 -34.4647 -34.4429 -11.8447 -11.6712  -5.1031  -4.6766
    -3.5276  -2.9172  -2.0139  -1.3720  -0.1125

          k =-0.5121 0.0002 0.0000 (  9158 PWs)   bands (ev):

   -60.3008 -34.6409 -34.4695 -34.4647 -11.8522 -11.6644  -4.8991  -4.7035
    -3.2629  -2.9608  -2.6175  -1.2839  -0.1418

          k =-0.5121 0.0986 0.0000 (  9161 PWs)   bands (ev):

   -60.3008 -34.6665 -34.4646 -34.4432 -11.8439 -11.6709  -5.1030  -4.6767
    -3.5262  -2.9176  -2.0161  -1.3726  -0.1120

          k =-0.5121 0.1971 0.0000 (  9158 PWs)   bands (ev):

   -60.3007 -34.7048 -34.4646 -34.4033 -11.8276 -11.6839  -5.4414  -4.6183
    -3.7346  -2.8468  -1.5152  -1.1003  -0.1142

          k =-0.5121-0.8862 0.0000 (  9142 PWs)   bands (ev):

   -60.3007 -34.7205 -34.4645 -34.3868 -11.8193 -11.6903  -5.5862  -4.5865
    -3.8025  -2.8228  -1.5671  -0.5013  -0.2909

     highest occupied level (ev):     0.3750

!    total energy              =    -489.75683111 Ry

     total all-electron energy =     -9688.214676 Ry
     estimated scf accuracy    <          1.5E-13 Ry

     The total energy is the sum of the following terms:
     one-electron contribution =    -813.90281236 Ry
     hartree contribution      =     410.77229952 Ry
     xc contribution           =     -29.52462855 Ry
     ewald contribution        =     255.78841210 Ry
     one-center paw contrib.   =    -312.89010182 Ry

     convergence has been achieved in  28 iterations

     negative rho (up, down):  4.903E-04 0.000E+00

     Forces acting on atoms (cartesian axes, Ry/au):

     atom    1 type  1   force =     0.00026864    0.00012947   -0.00000509
     atom    2 type  2   force =    -0.00013432   -0.00006474   -0.00032371
     atom    3 type  2   force =    -0.00013432   -0.00006473    0.00032880

     Total force =     0.000588     Total SCF correction =     0.000002


     Computing stress (Cartesian axis) and pressure


     negative rho (up, down):  4.903E-04 0.000E+00
          total   stress  (Ry/bohr**3)                   (kbar)     P=        0.41
   0.00000776  -0.00000085  -0.00000000            1.14       -0.13       -0.00
  -0.00000085   0.00000462   0.00000000           -0.13        0.68        0.00
  -0.00000000   0.00000000  -0.00000400           -0.00        0.00       -0.59


     Writing output data file /scratch/as3359/MoS2-CT/MoS2.save/
 
     init_run     :      5.28s CPU      2.90s WALL (       1 calls)
     electrons    :    170.46s CPU     88.19s WALL (       1 calls)
     forces       :      1.77s CPU      0.91s WALL (       1 calls)
     stress       :      5.10s CPU      2.62s WALL (       1 calls)

     Called by init_run:
     wfcinit      :      2.49s CPU      1.29s WALL (       1 calls)
     potinit      :      0.77s CPU      0.39s WALL (       1 calls)
     hinit0       :      1.78s CPU      1.08s WALL (       1 calls)

     Called by electrons:
     c_bands      :    131.62s CPU     67.24s WALL (      29 calls)
     sum_band     :     27.31s CPU     14.49s WALL (      29 calls)
     v_of_rho     :      1.97s CPU      1.05s WALL (      29 calls)
     newd         :      3.72s CPU      2.41s WALL (      29 calls)
     PAW_pot      :      5.27s CPU      2.71s WALL (      29 calls)
     mix_rho      :      0.62s CPU      0.32s WALL (      29 calls)

     Called by c_bands:
     init_us_2    :      4.84s CPU      2.47s WALL (    4514 calls)
     cegterg      :    122.87s CPU     62.78s WALL (    2146 calls)

     Called by *egterg:
     cdiaghg      :      3.10s CPU      1.58s WALL (    8958 calls)
     h_psi        :    105.90s CPU     54.19s WALL (    9106 calls)
     s_psi        :      2.82s CPU      1.43s WALL (    9106 calls)
     g_psi        :      0.91s CPU      0.46s WALL (    6886 calls)

     Called by h_psi:
     h_psi:calbec :      2.99s CPU      1.53s WALL (    9106 calls)
     vloc_psi     :     99.36s CPU     50.86s WALL (    9106 calls)
     add_vuspsi   :      2.72s CPU      1.39s WALL (    9106 calls)

     General routines
     calbec       :      3.97s CPU      2.03s WALL (   11622 calls)
     fft          :      0.92s CPU      0.48s WALL (     401 calls)
     ffts         :      0.11s CPU      0.06s WALL (      58 calls)
     fftw         :    104.46s CPU     53.47s WALL (  184090 calls)
     interpolate  :      0.19s CPU      0.10s WALL (      29 calls)
 
     Parallel routines
 
     PWSCF        :   3m 3.49s CPU   1m35.45s WALL

 
   This run was terminated on:  11:52:28   6Apr2022            

=------------------------------------------------------------------------------=
   JOB DONE.
=------------------------------------------------------------------------------=
