
     Program PWSCF v.6.8 starts on  6Apr2022 at 11:58:14 

     This program is part of the open-source Quantum ESPRESSO suite
     for quantum simulation of materials; please cite
         "P. Giannozzi et al., J. Phys.:Condens. Matter 21 395502 (2009);
         "P. Giannozzi et al., J. Phys.:Condens. Matter 29 465901 (2017);
         "P. Giannozzi et al., J. Chem. Phys. 152 154105 (2020);
          URL http://www.quantum-espresso.org", 
     in publications or presentations arising from this work. More details at
     http://www.quantum-espresso.org/quote

     Parallel version (MPI & OpenMP), running on       4 processor cores
     Number of MPI processes:                 2
     Threads/MPI process:                     2

     MPI processes distributed on     1 nodes
     R & G space division:  proc/nbgrp/npool/nimage =       2
     125213 MiB available memory on the printing compute node when the environment starts
 
     Reading input from MoS2.scf.90.in

     Current dimensions of program PWSCF are:
     Max number of different atomic species (ntypx) = 10
     Max number of k-points (npk) =  40000
     Max angular momentum in pseudopotentials (lmaxx) =  4
     file Mo.pbesol-spn-kjpaw_psl.1.0.0.UPF: wavefunction(s)  4S 4D renormalized
     file S.pbesol-nl-kjpaw_psl.1.0.0.UPF: wavefunction(s)  3S renormalized

     Subspace diagonalization in iterative solution of the eigenvalue problem:
     a serial algorithm will be used

 
     Parallelization info
     --------------------
     sticks:   dense  smooth     PW     G-vecs:    dense   smooth      PW
     Min         536     429    132                74446    53239    9105
     Max         539     430    133                74453    53246    9108
     Sum        1075     859    265               148899   106485   18213
 
     Using Slab Decomposition
 


     bravais-lattice index     =            0
     lattice parameter (alat)  =       6.0720  a.u.
     unit-cell volume          =     924.7995 (a.u.)^3
     number of atoms/cell      =            3
     number of atomic types    =            2
     number of electrons       =        26.00
     number of Kohn-Sham states=           13
     kinetic-energy cutoff     =      90.0000  Ry
     charge density cutoff     =     450.0000  Ry
     scf convergence threshold =      1.0E-12
     mixing beta               =       0.7000
     number of iterations used =            8  plain     mixing
     Exchange-correlation= SLA  PW   PSX  PSC
                           (   1   4  10   8   0   0   0)

     celldm(1)=   6.072000  celldm(2)=   0.000000  celldm(3)=   0.000000
     celldm(4)=   0.000000  celldm(5)=   0.000000  celldm(6)=   0.000000

     crystal axes: (cart. coord. in units of alat)
               a(1) = (   0.976384  -0.000017   0.000000 )  
               a(2) = (  -0.487931   0.846187   0.000000 )  
               a(3) = (   0.000000   0.000000   5.000000 )  

     reciprocal axes: (cart. coord. in units 2 pi/alat)
               b(1) = (  1.024198  0.590577  0.000000 )  
               b(2) = (  0.000021  1.181785  0.000000 )  
               b(3) = (  0.000000  0.000000  0.200000 )  


     PseudoPot. # 1 for Mo read from file:
     /shared/home/as3359/pseudo/Mo.pbesol-spn-kjpaw_psl.1.0.0.UPF
     MD5 check sum: de57925cfc675213e43241dcc441eda8
     Pseudo is Projector augmented-wave + core cor, Zval = 14.0
     Generated using &quot;atomic&quot; code by A. Dal Corso  v.6.3
     Shape of augmentation charge: PSQ
     Using radial grid of 1229 points,  6 beta functions with: 
                l(1) =   0
                l(2) =   0
                l(3) =   1
                l(4) =   1
                l(5) =   2
                l(6) =   2
     Q(r) pseudized with 0 coefficients 


     PseudoPot. # 2 for S  read from file:
     /shared/home/as3359/pseudo/S.pbesol-nl-kjpaw_psl.1.0.0.UPF
     MD5 check sum: bf3db50ec3f960682bbc396f1aadd1dd
     Pseudo is Projector augmented-wave + core cor, Zval =  6.0
     Generated using &quot;atomic&quot; code by A. Dal Corso  v.6.3
     Shape of augmentation charge: PSQ
     Using radial grid of 1151 points,  4 beta functions with: 
                l(1) =   0
                l(2) =   0
                l(3) =   1
                l(4) =   1
     Q(r) pseudized with 0 coefficients 


     atomic species   valence    mass     pseudopotential
        Mo            14.00    95.94000     Mo( 1.00)
        S              6.00    32.06500     S ( 1.00)

     No symmetry found



   Cartesian axes

     site n.     atom                  positions (alat units)
         1           Mo  tau(   1) = (   0.0000000   0.0000000   1.6880765  )
         2           S   tau(   2) = (   0.4883508   0.2821722   2.1737857  )
         3           S   tau(   3) = (   0.4883508   0.2821722   1.2023670  )

     number of k points=    74
                       cart. coord. in units 2pi/alat
        k(    1) = (   0.0000000   0.0000000   0.0000000), wk =   0.0138889
        k(    2) = (   0.0000017   0.0984820   0.0000000), wk =   0.0277778
        k(    3) = (   0.0000035   0.1969641   0.0000000), wk =   0.0277778
        k(    4) = (   0.0000052   0.2954461   0.0000000), wk =   0.0277778
        k(    5) = (   0.0000070   0.3939282   0.0000000), wk =   0.0277778
        k(    6) = (   0.0000087   0.4924102   0.0000000), wk =   0.0277778
        k(    7) = (  -0.0000105  -0.5908923   0.0000000), wk =   0.0138889
        k(    8) = (   0.0853498   0.0492147   0.0000000), wk =   0.0277778
        k(    9) = (   0.0853516   0.1476968   0.0000000), wk =   0.0277778
        k(   10) = (   0.0853533   0.2461788   0.0000000), wk =   0.0277778
        k(   11) = (   0.0853550   0.3446609   0.0000000), wk =   0.0277778
        k(   12) = (   0.0853568   0.4431429   0.0000000), wk =   0.0277778
        k(   13) = (   0.0853585   0.5416249   0.0000000), wk =   0.0277778
        k(   14) = (   0.0853394  -0.5416775   0.0000000), wk =   0.0277778
        k(   15) = (   0.0853411  -0.4431955   0.0000000), wk =   0.0277778
        k(   16) = (   0.0853428  -0.3447135   0.0000000), wk =   0.0277778
        k(   17) = (   0.0853446  -0.2462314   0.0000000), wk =   0.0277778
        k(   18) = (   0.0853463  -0.1477494   0.0000000), wk =   0.0277778
        k(   19) = (   0.0853481  -0.0492673   0.0000000), wk =   0.0277778
        k(   20) = (   0.1706996   0.0984294   0.0000000), wk =   0.0277778
        k(   21) = (   0.1707014   0.1969115   0.0000000), wk =   0.0277778
        k(   22) = (   0.1707031   0.2953935   0.0000000), wk =   0.0277778
        k(   23) = (   0.1707049   0.3938756   0.0000000), wk =   0.0277778
        k(   24) = (   0.1707066   0.4923576   0.0000000), wk =   0.0277778
        k(   25) = (   0.1707083   0.5908397   0.0000000), wk =   0.0277778
        k(   26) = (   0.1706892  -0.4924628   0.0000000), wk =   0.0277778
        k(   27) = (   0.1706909  -0.3939808   0.0000000), wk =   0.0277778
        k(   28) = (   0.1706927  -0.2954987   0.0000000), wk =   0.0277778
        k(   29) = (   0.1706944  -0.1970167   0.0000000), wk =   0.0277778
        k(   30) = (   0.1706961  -0.0985346   0.0000000), wk =   0.0277778
        k(   31) = (   0.1706979  -0.0000526   0.0000000), wk =   0.0277778
        k(   32) = (   0.2560494   0.1476442   0.0000000), wk =   0.0277778
        k(   33) = (   0.2560512   0.2461262   0.0000000), wk =   0.0277778
        k(   34) = (   0.2560529   0.3446082   0.0000000), wk =   0.0277778
        k(   35) = (   0.2560547   0.4430903   0.0000000), wk =   0.0277778
        k(   36) = (   0.2560564   0.5415723   0.0000000), wk =   0.0277778
        k(   37) = (   0.2560582   0.6400544   0.0000000), wk =   0.0277778
        k(   38) = (   0.2560390  -0.4432481   0.0000000), wk =   0.0277778
        k(   39) = (   0.2560407  -0.3447661   0.0000000), wk =   0.0277778
        k(   40) = (   0.2560425  -0.2462840   0.0000000), wk =   0.0277778
        k(   41) = (   0.2560442  -0.1478020   0.0000000), wk =   0.0277778
        k(   42) = (   0.2560460  -0.0493199   0.0000000), wk =   0.0277778
        k(   43) = (   0.2560477   0.0491621   0.0000000), wk =   0.0277778
        k(   44) = (   0.3413993   0.1968589   0.0000000), wk =   0.0277778
        k(   45) = (   0.3414010   0.2953409   0.0000000), wk =   0.0277778
        k(   46) = (   0.3414027   0.3938230   0.0000000), wk =   0.0277778
        k(   47) = (   0.3414045   0.4923050   0.0000000), wk =   0.0277778
        k(   48) = (   0.3414062   0.5907871   0.0000000), wk =   0.0277778
        k(   49) = (   0.3414080   0.6892691   0.0000000), wk =   0.0277778
        k(   50) = (   0.3413888  -0.3940334   0.0000000), wk =   0.0277778
        k(   51) = (   0.3413905  -0.2955513   0.0000000), wk =   0.0277778
        k(   52) = (   0.3413923  -0.1970693   0.0000000), wk =   0.0277778
        k(   53) = (   0.3413940  -0.0985872   0.0000000), wk =   0.0277778
        k(   54) = (   0.3413958  -0.0001052   0.0000000), wk =   0.0277778
        k(   55) = (   0.3413975   0.0983768   0.0000000), wk =   0.0277778
        k(   56) = (   0.4267491   0.2460736   0.0000000), wk =   0.0277778
        k(   57) = (   0.4267508   0.3445556   0.0000000), wk =   0.0277778
        k(   58) = (   0.4267526   0.4430377   0.0000000), wk =   0.0277778
        k(   59) = (   0.4267543   0.5415197   0.0000000), wk =   0.0277778
        k(   60) = (   0.4267560   0.6400018   0.0000000), wk =   0.0277778
        k(   61) = (   0.4267578   0.7384838   0.0000000), wk =   0.0277778
        k(   62) = (   0.4267386  -0.3448187   0.0000000), wk =   0.0277778
        k(   63) = (   0.4267404  -0.2463366   0.0000000), wk =   0.0277778
        k(   64) = (   0.4267421  -0.1478546   0.0000000), wk =   0.0277778
        k(   65) = (   0.4267438  -0.0493725   0.0000000), wk =   0.0277778
        k(   66) = (   0.4267456   0.0491095   0.0000000), wk =   0.0277778
        k(   67) = (   0.4267473   0.1475916   0.0000000), wk =   0.0277778
        k(   68) = (  -0.5120989  -0.2952883   0.0000000), wk =   0.0138889
        k(   69) = (  -0.5120971  -0.1968063   0.0000000), wk =   0.0277778
        k(   70) = (  -0.5120954  -0.0983242   0.0000000), wk =   0.0277778
        k(   71) = (  -0.5120937   0.0001578   0.0000000), wk =   0.0277778
        k(   72) = (  -0.5120919   0.0986398   0.0000000), wk =   0.0277778
        k(   73) = (  -0.5120902   0.1971219   0.0000000), wk =   0.0277778
        k(   74) = (  -0.5121093  -0.8861806   0.0000000), wk =   0.0138889

     Dense  grid:   148899 G-vectors     FFT dimensions: (  45,  45, 216)

     Smooth grid:   106485 G-vectors     FFT dimensions: (  36,  36, 192)

     Estimated max dynamical RAM per process >     382.48 MB

     Estimated total dynamical RAM >     764.97 MB

     Initial potential from superposition of free atoms

     starting charge   25.99914, renormalised to   26.00000

     negative rho (up, down):  1.972E-04 0.000E+00
     Starting wfcs are   18 randomized atomic wfcs
     Checking if some PAW data can be deallocated... 

     total cpu time spent up to now is        4.2 secs

     Self-consistent Calculation

     iteration #  1     ecut=    90.00 Ry     beta= 0.70
     Davidson diagonalization with overlap
     ethr =  1.00E-02,  avg # of iterations =  2.0

     Threshold (ethr) on eigenvalues was too large:
     Diagonalizing with lowered threshold

     Davidson diagonalization with overlap
     ethr =  3.45E-04,  avg # of iterations =  3.9

     negative rho (up, down):  2.243E-04 0.000E+00

     total cpu time spent up to now is       12.7 secs

     total energy              =    -489.69342076 Ry
     estimated scf accuracy    <       0.14263467 Ry

     iteration #  2     ecut=    90.00 Ry     beta= 0.70
     Davidson diagonalization with overlap
     ethr =  5.49E-04,  avg # of iterations =  5.2

     negative rho (up, down):  2.107E-04 0.000E+00

     total cpu time spent up to now is       18.4 secs

     total energy              =    -489.64929033 Ry
     estimated scf accuracy    <       0.56195092 Ry

     iteration #  3     ecut=    90.00 Ry     beta= 0.70
     Davidson diagonalization with overlap
     ethr =  5.49E-04,  avg # of iterations =  5.2

     negative rho (up, down):  2.095E-04 0.000E+00

     total cpu time spent up to now is       23.8 secs

     total energy              =    -489.75274633 Ry
     estimated scf accuracy    <       0.03224974 Ry

     iteration #  4     ecut=    90.00 Ry     beta= 0.70
     Davidson diagonalization with overlap
     ethr =  1.24E-04,  avg # of iterations =  2.5

     negative rho (up, down):  2.189E-04 0.000E+00

     total cpu time spent up to now is       27.9 secs

     total energy              =    -489.75498585 Ry
     estimated scf accuracy    <       0.00454216 Ry

     iteration #  5     ecut=    90.00 Ry     beta= 0.70
     Davidson diagonalization with overlap
     ethr =  1.75E-05,  avg # of iterations =  4.8

     negative rho (up, down):  2.203E-04 0.000E+00

     total cpu time spent up to now is       33.2 secs

     total energy              =    -489.75762966 Ry
     estimated scf accuracy    <       0.00424148 Ry

     iteration #  6     ecut=    90.00 Ry     beta= 0.70
     Davidson diagonalization with overlap
     ethr =  1.63E-05,  avg # of iterations =  1.0

     negative rho (up, down):  2.224E-04 0.000E+00

     total cpu time spent up to now is       36.5 secs

     total energy              =    -489.75694188 Ry
     estimated scf accuracy    <       0.00299681 Ry

     iteration #  7     ecut=    90.00 Ry     beta= 0.70
     Davidson diagonalization with overlap
     ethr =  1.15E-05,  avg # of iterations =  2.6

     negative rho (up, down):  2.239E-04 0.000E+00

     total cpu time spent up to now is       40.5 secs

     total energy              =    -489.75718210 Ry
     estimated scf accuracy    <       0.00040300 Ry

     iteration #  8     ecut=    90.00 Ry     beta= 0.70
     Davidson diagonalization with overlap
     ethr =  1.55E-06,  avg # of iterations =  4.7

     negative rho (up, down):  2.261E-04 0.000E+00

     total cpu time spent up to now is       45.3 secs

     total energy              =    -489.75729905 Ry
     estimated scf accuracy    <       0.00002081 Ry

     iteration #  9     ecut=    90.00 Ry     beta= 0.70
     Davidson diagonalization with overlap
     ethr =  8.00E-08,  avg # of iterations =  5.4

     negative rho (up, down):  2.261E-04 0.000E+00

     total cpu time spent up to now is       51.1 secs

     total energy              =    -489.75730854 Ry
     estimated scf accuracy    <       0.00009489 Ry

     iteration # 10     ecut=    90.00 Ry     beta= 0.70
     Davidson diagonalization with overlap
     ethr =  8.00E-08,  avg # of iterations =  4.1

     negative rho (up, down):  2.260E-04 0.000E+00

     total cpu time spent up to now is       55.7 secs

     total energy              =    -489.75728877 Ry
     estimated scf accuracy    <       0.00008273 Ry

     iteration # 11     ecut=    90.00 Ry     beta= 0.70
     Davidson diagonalization with overlap
     ethr =  8.00E-08,  avg # of iterations =  4.2

     negative rho (up, down):  2.262E-04 0.000E+00

     total cpu time spent up to now is       60.8 secs

     total energy              =    -489.75729975 Ry
     estimated scf accuracy    <       0.00001266 Ry

     iteration # 12     ecut=    90.00 Ry     beta= 0.70
     Davidson diagonalization with overlap
     ethr =  4.87E-08,  avg # of iterations =  3.8

     negative rho (up, down):  2.262E-04 0.000E+00

     total cpu time spent up to now is       65.3 secs

     total energy              =    -489.75730161 Ry
     estimated scf accuracy    <       0.00000232 Ry

     iteration # 13     ecut=    90.00 Ry     beta= 0.70
     Davidson diagonalization with overlap
     ethr =  8.93E-09,  avg # of iterations =  3.5

     negative rho (up, down):  2.262E-04 0.000E+00

     total cpu time spent up to now is       69.6 secs

     total energy              =    -489.75730191 Ry
     estimated scf accuracy    <       0.00000024 Ry

     iteration # 14     ecut=    90.00 Ry     beta= 0.70
     Davidson diagonalization with overlap
     ethr =  9.08E-10,  avg # of iterations =  4.9

     negative rho (up, down):  2.262E-04 0.000E+00

     total cpu time spent up to now is       74.9 secs

     total energy              =    -489.75730203 Ry
     estimated scf accuracy    <       0.00000019 Ry

     iteration # 15     ecut=    90.00 Ry     beta= 0.70
     Davidson diagonalization with overlap
     ethr =  7.17E-10,  avg # of iterations =  2.0

     negative rho (up, down):  2.262E-04 0.000E+00

     total cpu time spent up to now is       78.7 secs

     total energy              =    -489.75730202 Ry
     estimated scf accuracy    <       0.00000007 Ry

     iteration # 16     ecut=    90.00 Ry     beta= 0.70
     Davidson diagonalization with overlap
     ethr =  2.82E-10,  avg # of iterations =  4.5

     negative rho (up, down):  2.262E-04 0.000E+00

     total cpu time spent up to now is       83.6 secs

     total energy              =    -489.75730204 Ry
     estimated scf accuracy    <       0.00000006 Ry

     iteration # 17     ecut=    90.00 Ry     beta= 0.70
     Davidson diagonalization with overlap
     ethr =  2.19E-10,  avg # of iterations =  2.1

     negative rho (up, down):  2.262E-04 0.000E+00

     total cpu time spent up to now is       87.5 secs

     total energy              =    -489.75730204 Ry
     estimated scf accuracy    <       0.00000005 Ry

     iteration # 18     ecut=    90.00 Ry     beta= 0.70
     Davidson diagonalization with overlap
     ethr =  1.78E-10,  avg # of iterations =  1.0

     negative rho (up, down):  2.262E-04 0.000E+00

     total cpu time spent up to now is       90.9 secs

     total energy              =    -489.75730203 Ry
     estimated scf accuracy    <       0.00000003 Ry

     iteration # 19     ecut=    90.00 Ry     beta= 0.70
     Davidson diagonalization with overlap
     ethr =  1.15E-10,  avg # of iterations =  2.9

     negative rho (up, down):  2.262E-04 0.000E+00

     total cpu time spent up to now is       95.1 secs

     total energy              =    -489.75730204 Ry
     estimated scf accuracy    <          1.4E-09 Ry

     iteration # 20     ecut=    90.00 Ry     beta= 0.70
     Davidson diagonalization with overlap
     ethr =  5.52E-12,  avg # of iterations =  4.7

     negative rho (up, down):  2.262E-04 0.000E+00

     total cpu time spent up to now is      100.4 secs

     total energy              =    -489.75730204 Ry
     estimated scf accuracy    <          1.2E-09 Ry

     iteration # 21     ecut=    90.00 Ry     beta= 0.70
     Davidson diagonalization with overlap
     ethr =  4.79E-12,  avg # of iterations =  1.6

     negative rho (up, down):  2.262E-04 0.000E+00

     total cpu time spent up to now is      103.9 secs

     total energy              =    -489.75730204 Ry
     estimated scf accuracy    <          5.2E-10 Ry

     iteration # 22     ecut=    90.00 Ry     beta= 0.70
     Davidson diagonalization with overlap
     ethr =  2.01E-12,  avg # of iterations =  4.2

     negative rho (up, down):  2.262E-04 0.000E+00

     total cpu time spent up to now is      108.7 secs

     total energy              =    -489.75730204 Ry
     estimated scf accuracy    <          5.3E-10 Ry

     iteration # 23     ecut=    90.00 Ry     beta= 0.70
     Davidson diagonalization with overlap
     ethr =  2.01E-12,  avg # of iterations =  2.0

     negative rho (up, down):  2.262E-04 0.000E+00

     total cpu time spent up to now is      112.5 secs

     total energy              =    -489.75730204 Ry
     estimated scf accuracy    <          2.6E-10 Ry

     iteration # 24     ecut=    90.00 Ry     beta= 0.70
     Davidson diagonalization with overlap
     ethr =  9.88E-13,  avg # of iterations =  3.4

     negative rho (up, down):  2.262E-04 0.000E+00

     total cpu time spent up to now is      116.8 secs

     total energy              =    -489.75730204 Ry
     estimated scf accuracy    <          2.8E-11 Ry

     iteration # 25     ecut=    90.00 Ry     beta= 0.70
     Davidson diagonalization with overlap
     ethr =  1.09E-13,  avg # of iterations =  4.2

     negative rho (up, down):  2.262E-04 0.000E+00

     total cpu time spent up to now is      121.7 secs

     total energy              =    -489.75730204 Ry
     estimated scf accuracy    <          2.5E-11 Ry

     iteration # 26     ecut=    90.00 Ry     beta= 0.70
     Davidson diagonalization with overlap
     ethr =  1.00E-13,  avg # of iterations =  1.7

     negative rho (up, down):  2.262E-04 0.000E+00

     total cpu time spent up to now is      125.3 secs

     total energy              =    -489.75730204 Ry
     estimated scf accuracy    <          8.7E-12 Ry

     iteration # 27     ecut=    90.00 Ry     beta= 0.70
     Davidson diagonalization with overlap
     ethr =  1.00E-13,  avg # of iterations =  3.2

     negative rho (up, down):  2.262E-04 0.000E+00

     total cpu time spent up to now is      129.5 secs

     total energy              =    -489.75730204 Ry
     estimated scf accuracy    <          7.7E-12 Ry

     iteration # 28     ecut=    90.00 Ry     beta= 0.70
     Davidson diagonalization with overlap
     ethr =  1.00E-13,  avg # of iterations =  1.0

     negative rho (up, down):  2.262E-04 0.000E+00

     total cpu time spent up to now is      132.9 secs

     total energy              =    -489.75730204 Ry
     estimated scf accuracy    <          4.2E-12 Ry

     iteration # 29     ecut=    90.00 Ry     beta= 0.70
     Davidson diagonalization with overlap
     ethr =  1.00E-13,  avg # of iterations =  1.0

     negative rho (up, down):  2.262E-04 0.000E+00

     total cpu time spent up to now is      136.3 secs

     total energy              =    -489.75730204 Ry
     estimated scf accuracy    <          1.3E-12 Ry

     iteration # 30     ecut=    90.00 Ry     beta= 0.70
     Davidson diagonalization with overlap
     ethr =  1.00E-13,  avg # of iterations =  1.0

     negative rho (up, down):  2.262E-04 0.000E+00

     total cpu time spent up to now is      139.7 secs

     End of self-consistent calculation

          k = 0.0000 0.0000 0.0000 ( 13261 PWs)   bands (ev):

   -60.3466 -34.5537 -34.2859 -34.2846 -13.8553 -12.5037  -5.4145  -2.2348
    -2.2260  -1.4941  -1.0737  -1.0673   0.2787

          k = 0.0000 0.0985 0.0000 ( 13277 PWs)   bands (ev):

   -60.3436 -34.5477 -34.3159 -34.2914 -13.7455 -12.4584  -5.2906  -2.4748
    -2.1116  -1.9586  -1.2407  -0.7778   0.2365

          k = 0.0000 0.1970 0.0000 ( 13295 PWs)   bands (ev):

   -60.3352 -34.5315 -34.3972 -34.3098 -13.4327 -12.3295  -4.9799  -3.0231
    -2.6263  -1.7912  -1.6472  -0.7042   0.0213

          k = 0.0000 0.2954 0.0000 ( 13300 PWs)   bands (ev):

   -60.3238 -34.5092 -34.5067 -34.3349 -12.9681 -12.1395  -4.7598  -3.4846
    -3.3111  -2.1008  -1.3427  -0.9773  -0.4117

          k = 0.0000 0.3939 0.0000 ( 13328 PWs)   bands (ev):

   -60.3124 -34.6143 -34.4868 -34.3598 -12.4428 -11.9296  -5.0169  -3.9459
    -3.5889  -2.4812  -1.3009  -0.8972  -0.6653

          k = 0.0000 0.4924 0.0000 ( 13300 PWs)   bands (ev):

   -60.3040 -34.6920 -34.4703 -34.3780 -12.0010 -11.7599  -5.4148  -4.4119
    -3.7138  -2.7278  -1.5048  -0.5934  -0.4741

          k =-0.0000-0.5909 0.0000 ( 13324 PWs)   bands (ev):

   -60.3009 -34.7202 -34.4643 -34.3846 -11.8220 -11.6936  -5.5873  -4.5847
    -3.8032  -2.8127  -1.5700  -0.4920  -0.2952

          k = 0.0853 0.0492 0.0000 ( 13283 PWs)   bands (ev):

   -60.3436 -34.5477 -34.3152 -34.2922 -13.7454 -12.4583  -5.2905  -2.4713
    -2.1156  -1.9564  -1.2461  -0.7750   0.2369

          k = 0.0854 0.1477 0.0000 ( 13303 PWs)   bands (ev):

   -60.3379 -34.5366 -34.3698 -34.3058 -13.5341 -12.3710  -5.0693  -2.8611
    -2.4005  -1.9035  -1.6501  -0.5823   0.1085

          k = 0.0854 0.2462 0.0000 ( 13291 PWs)   bands (ev):

   -60.3280 -34.5174 -34.4613 -34.3314 -13.1443 -12.2104  -4.7709  -3.3491
    -2.9636  -2.2310  -1.5739  -0.6200  -0.2248

          k = 0.0854 0.3447 0.0000 ( 13321 PWs)   bands (ev):

   -60.3166 -34.5651 -34.4950 -34.3610 -12.6455 -12.0069  -4.7991  -3.6380
    -3.5308  -2.6169  -1.3412  -0.9379  -0.5033

          k = 0.0854 0.4431 0.0000 ( 13341 PWs)   bands (ev):

   -60.3067 -34.6538 -34.4756 -34.3866 -12.1524 -11.8108  -5.1611  -4.2548
    -3.5841  -2.7875  -1.2951  -1.2410  -0.3612

          k = 0.0854 0.5416 0.0000 ( 13353 PWs)   bands (ev):

   -60.3009 -34.7044 -34.4643 -34.4013 -11.8301 -11.6869  -5.4418  -4.6161
    -3.7356  -2.8384  -1.5177  -1.0960  -0.1137

          k = 0.0853-0.5417 0.0000 ( 13355 PWs)   bands (ev):

   -60.3009 -34.7045 -34.4643 -34.4013 -11.8300 -11.6869  -5.4420  -4.6161
    -3.7356  -2.8390  -1.5171  -1.0952  -0.1147

          k = 0.0853-0.4432 0.0000 ( 13339 PWs)   bands (ev):

   -60.3067 -34.6539 -34.4756 -34.3866 -12.1521 -11.8107  -5.1615  -4.2546
    -3.5842  -2.7886  -1.2940  -1.2389  -0.3634

          k = 0.0853-0.3447 0.0000 ( 13321 PWs)   bands (ev):

   -60.3166 -34.5653 -34.4950 -34.3610 -12.6451 -12.0068  -4.7993  -3.6380
    -3.5309  -2.6175  -1.3394  -0.9370  -0.5056

          k = 0.0853-0.2462 0.0000 ( 13289 PWs)   bands (ev):

   -60.3280 -34.5173 -34.4614 -34.3315 -13.1440 -12.2103  -4.7707  -3.3485
    -2.9645  -2.2304  -1.5744  -0.6197  -0.2256

          k = 0.0853-0.1477 0.0000 ( 13303 PWs)   bands (ev):

   -60.3379 -34.5366 -34.3696 -34.3061 -13.5338 -12.3709  -5.0691  -2.8590
    -2.4015  -1.9061  -1.6491  -0.5824   0.1084

          k = 0.0853-0.0493 0.0000 ( 13277 PWs)   bands (ev):

   -60.3436 -34.5477 -34.3149 -34.2925 -13.7453 -12.4583  -5.2904  -2.4682
    -2.1189  -1.9568  -1.2457  -0.7750   0.2369

          k = 0.1707 0.0984 0.0000 ( 13299 PWs)   bands (ev):

   -60.3352 -34.5314 -34.3966 -34.3107 -13.4324 -12.3290  -4.9797  -3.0205
    -2.6235  -1.7950  -1.6530  -0.7027   0.0230

          k = 0.1707 0.1969 0.0000 ( 13294 PWs)   bands (ev):

   -60.3280 -34.5173 -34.4610 -34.3318 -13.1441 -12.2100  -4.7710  -3.3476
    -2.9614  -2.2346  -1.5760  -0.6200  -0.2235

          k = 0.1707 0.2954 0.0000 ( 13313 PWs)   bands (ev):

   -60.3181 -34.5398 -34.4980 -34.3691 -12.7173 -12.0331  -4.6897  -3.4872
    -3.3884  -2.8935  -1.5787  -0.6548  -0.4348

          k = 0.1707 0.3939 0.0000 ( 13349 PWs)   bands (ev):

   -60.3082 -34.6137 -34.4786 -34.4103 -12.2401 -11.8353  -4.8886  -4.1147
    -3.3894  -3.0081  -1.8999  -0.9774  -0.3639

          k = 0.1707 0.4924 0.0000 ( 13379 PWs)   bands (ev):

   -60.3009 -34.6659 -34.4643 -34.4417 -11.8461 -11.6732  -5.1014  -4.6739
    -3.5277  -2.9128  -2.0142  -1.3742  -0.1095

          k = 0.1707 0.5908 0.0000 ( 13365 PWs)   bands (ev):

   -60.2983 -34.6848 -34.4591 -34.4533 -11.6891 -11.6093  -5.1814  -4.8777
    -3.6694  -2.8313  -1.9985  -1.5664   0.0714

          k = 0.1707-0.4925 0.0000 ( 13377 PWs)   bands (ev):

   -60.3009 -34.6661 -34.4643 -34.4416 -11.8455 -11.6730  -5.1021  -4.6738
    -3.5280  -2.9139  -2.0125  -1.3732  -0.1112

          k = 0.1707-0.3940 0.0000 ( 13349 PWs)   bands (ev):

   -60.3082 -34.6140 -34.4785 -34.4103 -12.2393 -11.8351  -4.8894  -4.1144
    -3.3895  -3.0095  -1.8978  -0.9764  -0.3662

          k = 0.1707-0.2955 0.0000 ( 13309 PWs)   bands (ev):

   -60.3181 -34.5399 -34.4979 -34.3693 -12.7166 -12.0328  -4.6898  -3.4865
    -3.3885  -2.8942  -1.5781  -0.6541  -0.4370

          k = 0.1707-0.1970 0.0000 ( 13294 PWs)   bands (ev):

   -60.3279 -34.5173 -34.4609 -34.3322 -13.1435 -12.2098  -4.7706  -3.3458
    -2.9620  -2.2347  -1.5781  -0.6195  -0.2242

          k = 0.1707-0.0985 0.0000 ( 13297 PWs)   bands (ev):

   -60.3352 -34.5314 -34.3964 -34.3111 -13.4321 -12.3288  -4.9794  -3.0182
    -2.6238  -1.7982  -1.6536  -0.7020   0.0231

          k = 0.1707-0.0001 0.0000 ( 13303 PWs)   bands (ev):

   -60.3378 -34.5366 -34.3691 -34.3068 -13.5336 -12.3706  -5.0689  -2.8572
    -2.3996  -1.9091  -1.6526  -0.5814   0.1094

          k = 0.2560 0.1476 0.0000 ( 13296 PWs)   bands (ev):

   -60.3238 -34.5091 -34.5062 -34.3358 -12.9674 -12.1383  -4.7599  -3.4823
    -3.3089  -2.1070  -1.3466  -0.9764  -0.4088

          k = 0.2561 0.2461 0.0000 ( 13319 PWs)   bands (ev):

   -60.3165 -34.5648 -34.4949 -34.3618 -12.6449 -12.0058  -4.7990  -3.6363
    -3.5288  -2.6216  -1.3439  -0.9377  -0.5017

          k = 0.2561 0.3446 0.0000 ( 13355 PWs)   bands (ev):

   -60.3082 -34.6135 -34.4786 -34.4107 -12.2398 -11.8346  -4.8883  -4.1145
    -3.3884  -3.0099  -1.9013  -0.9773  -0.3635

          k = 0.2561 0.4431 0.0000 ( 13377 PWs)   bands (ev):

   -60.3009 -34.6400 -34.4686 -34.4643 -11.8537 -11.6658  -4.8958  -4.7010
    -3.2620  -2.9583  -2.6207  -1.2852  -0.1376

          k = 0.2561 0.5416 0.0000 ( 13390 PWs)   bands (ev):

   -60.2967 -34.6456 -34.5119 -34.4561 -11.6123 -11.5571  -5.0669  -4.7709
    -3.5328  -2.8885  -2.7488  -1.6398   0.1796

          k = 0.2561 0.6401 0.0000 ( 13392 PWs)   bands (ev):

   -60.2967 -34.6458 -34.5118 -34.4561 -11.6119 -11.5570  -5.0669  -4.7715
    -3.5332  -2.8874  -2.7494  -1.6394   0.1789

          k = 0.2560-0.4432 0.0000 ( 13379 PWs)   bands (ev):

   -60.3009 -34.6403 -34.4687 -34.4643 -11.8527 -11.6655  -4.8968  -4.7009
    -3.2623  -2.9596  -2.6189  -1.2845  -0.1392

          k = 0.2560-0.3448 0.0000 ( 13355 PWs)   bands (ev):

   -60.3081 -34.6137 -34.4785 -34.4109 -12.2386 -11.8342  -4.8890  -4.1143
    -3.3871  -3.0115  -1.9009  -0.9766  -0.3657

          k = 0.2560-0.2463 0.0000 ( 13319 PWs)   bands (ev):

   -60.3165 -34.5648 -34.4949 -34.3622 -12.6439 -12.0054  -4.7990  -3.6361
    -3.5268  -2.6233  -1.3448  -0.9371  -0.5037

          k = 0.2560-0.1478 0.0000 ( 13292 PWs)   bands (ev):

   -60.3237 -34.5090 -34.5061 -34.3363 -12.9667 -12.1380  -4.7595  -3.4801
    -3.3088  -2.1085  -1.3494  -0.9757  -0.4089

          k = 0.2560-0.0493 0.0000 ( 13300 PWs)   bands (ev):

   -60.3279 -34.5172 -34.4608 -34.3325 -13.1431 -12.2092  -4.7704  -3.3462
    -2.9623  -2.2354  -1.5785  -0.6193  -0.2235

          k = 0.2560 0.0492 0.0000 ( 13290 PWs)   bands (ev):

   -60.3279 -34.5173 -34.4609 -34.3323 -13.1434 -12.2093  -4.7706  -3.3474
    -2.9625  -2.2347  -1.5769  -0.6195  -0.2237

          k = 0.3414 0.1969 0.0000 ( 13325 PWs)   bands (ev):

   -60.3123 -34.6139 -34.4867 -34.3608 -12.4418 -11.9276  -5.0167  -3.9454
    -3.5871  -2.4879  -1.2993  -0.9016  -0.6620

          k = 0.3414 0.2953 0.0000 ( 13342 PWs)   bands (ev):

   -60.3066 -34.6534 -34.4755 -34.3876 -12.1515 -11.8089  -5.1603  -4.2550
    -3.5830  -2.7925  -1.2940  -1.2433  -0.3603

          k = 0.3414 0.3938 0.0000 ( 13383 PWs)   bands (ev):

   -60.3009 -34.6657 -34.4643 -34.4424 -11.8453 -11.6716  -5.1005  -4.6750
    -3.5272  -2.9155  -2.0166  -1.3731  -0.1084

          k = 0.3414 0.4923 0.0000 ( 13388 PWs)   bands (ev):

   -60.2967 -34.6454 -34.5123 -34.4561 -11.6119 -11.5563  -5.0678  -4.7705
    -3.5324  -2.8900  -2.7501  -1.6389   0.1801

          k = 0.3414 0.5908 0.0000 ( 13381 PWs)   bands (ev):

   -60.2951 -34.6131 -34.5630 -34.4530 -11.5245 -11.5101  -5.2236  -4.3605
    -3.8340  -3.2104  -2.5874  -1.8346   0.3754

          k = 0.3414 0.6893 0.0000 ( 13388 PWs)   bands (ev):

   -60.2966 -34.6456 -34.5124 -34.4560 -11.6111 -11.5560  -5.0679  -4.7711
    -3.5319  -2.8901  -2.7509  -1.6387   0.1796

          k = 0.3414-0.3940 0.0000 ( 13381 PWs)   bands (ev):

   -60.3008 -34.6658 -34.4642 -34.4427 -11.8440 -11.6711  -5.1011  -4.6750
    -3.5260  -2.9171  -2.0171  -1.3728  -0.1095

          k = 0.3414-0.2956 0.0000 ( 13344 PWs)   bands (ev):

   -60.3065 -34.6535 -34.4754 -34.3880 -12.1501 -11.8083  -5.1604  -4.2546
    -3.5812  -2.7948  -1.2935  -1.2440  -0.3622

          k = 0.3414-0.1971 0.0000 ( 13328 PWs)   bands (ev):

   -60.3123 -34.6139 -34.4866 -34.3614 -12.4407 -11.9271  -5.0165  -3.9451
    -3.5849  -2.4901  -1.2990  -0.9043  -0.6623

          k = 0.3414-0.0986 0.0000 ( 13323 PWs)   bands (ev):

   -60.3165 -34.5649 -34.4948 -34.3623 -12.6434 -12.0048  -4.7995  -3.6373
    -3.5275  -2.6230  -1.3430  -0.9369  -0.5047

          k = 0.3414-0.0001 0.0000 ( 13319 PWs)   bands (ev):

   -60.3180 -34.5399 -34.4979 -34.3698 -12.7158 -12.0316  -4.6902  -3.4870
    -3.3899  -2.8950  -1.5767  -0.6539  -0.4377

          k = 0.3414 0.0984 0.0000 ( 13325 PWs)   bands (ev):

   -60.3165 -34.5650 -34.4949 -34.3619 -12.6440 -12.0051  -4.7996  -3.6376
    -3.5295  -2.6219  -1.3404  -0.9367  -0.5051

          k = 0.4267 0.2461 0.0000 ( 13304 PWs)   bands (ev):

   -60.3039 -34.6917 -34.4702 -34.3791 -11.9996 -11.7572  -5.4139  -4.4129
    -3.7132  -2.7348  -1.5021  -0.5988  -0.4704

          k = 0.4268 0.3446 0.0000 ( 13346 PWs)   bands (ev):

   -60.3008 -34.7042 -34.4642 -34.4024 -11.8289 -11.6843  -5.4405  -4.6177
    -3.7355  -2.8441  -1.5152  -1.0990  -0.1122

          k = 0.4268 0.4430 0.0000 ( 13369 PWs)   bands (ev):

   -60.2982 -34.6846 -34.4590 -34.4541 -11.6880 -11.6071  -5.1807  -4.8798
    -3.6693  -2.8348  -2.0009  -1.5642   0.0723

          k = 0.4268 0.5415 0.0000 ( 13394 PWs)   bands (ev):

   -60.2966 -34.6457 -34.5123 -34.4560 -11.6111 -11.5556  -5.0686  -4.7723
    -3.5322  -2.8885  -2.7512  -1.6379   0.1781

          k = 0.4268 0.6400 0.0000 ( 13398 PWs)   bands (ev):

   -60.2966 -34.6457 -34.5125 -34.4560 -11.6107 -11.5554  -5.0687  -4.7723
    -3.5314  -2.8896  -2.7513  -1.6382   0.1783

          k = 0.4268 0.7385 0.0000 ( 13367 PWs)   bands (ev):

   -60.2981 -34.6847 -34.4589 -34.4545 -11.6868 -11.6066  -5.1808  -4.8799
    -3.6684  -2.8358  -2.0025  -1.5645   0.0725

          k = 0.4267-0.3448 0.0000 ( 13346 PWs)   bands (ev):

   -60.3008 -34.7043 -34.4641 -34.4028 -11.8273 -11.6836  -5.4406  -4.6176
    -3.7343  -2.8463  -1.5151  -1.1005  -0.1129

          k = 0.4267-0.2463 0.0000 ( 13306 PWs)   bands (ev):

   -60.3038 -34.6918 -34.4701 -34.3796 -11.9981 -11.7565  -5.4137  -4.4126
    -3.7117  -2.7373  -1.5020  -0.6017  -0.4701

          k = 0.4267-0.1479 0.0000 ( 13341 PWs)   bands (ev):

   -60.3065 -34.6537 -34.4754 -34.3880 -12.1497 -11.8078  -5.1613  -4.2557
    -3.5812  -2.7947  -1.2931  -1.2425  -0.3639

          k = 0.4267-0.0494 0.0000 ( 13351 PWs)   bands (ev):

   -60.3081 -34.6139 -34.4784 -34.4111 -12.2378 -11.8330  -4.8905  -4.1165
    -3.3878  -3.0114  -1.8981  -0.9761  -0.3679

          k = 0.4267 0.0491 0.0000 ( 13349 PWs)   bands (ev):

   -60.3081 -34.6139 -34.4784 -34.4109 -12.2381 -11.8332  -4.8905  -4.1165
    -3.3891  -3.0111  -1.8965  -0.9757  -0.3681

          k = 0.4267 0.1476 0.0000 ( 13339 PWs)   bands (ev):

   -60.3066 -34.6537 -34.4754 -34.3876 -12.1508 -11.8083  -5.1616  -4.2558
    -3.5831  -2.7935  -1.2925  -1.2397  -0.3642

          k =-0.5121-0.2953 0.0000 ( 13308 PWs)   bands (ev):

   -60.3008 -34.7200 -34.4642 -34.3857 -11.8206 -11.6906  -5.5860  -4.5864
    -3.8033  -2.8197  -1.5669  -0.4978  -0.2913

          k =-0.5121-0.1968 0.0000 ( 13353 PWs)   bands (ev):

   -60.3008 -34.7043 -34.4642 -34.4023 -11.8286 -11.6840  -5.4412  -4.6180
    -3.7354  -2.8447  -1.5145  -1.0976  -0.1142

          k =-0.5121-0.0983 0.0000 ( 13381 PWs)   bands (ev):

   -60.3008 -34.6660 -34.4642 -34.4424 -11.8442 -11.6708  -5.1027  -4.6761
    -3.5272  -2.9168  -2.0135  -1.3716  -0.1121

          k =-0.5121 0.0002 0.0000 ( 13383 PWs)   bands (ev):

   -60.3008 -34.6404 -34.4690 -34.4642 -11.8517 -11.6640  -4.8987  -4.7031
    -3.2625  -2.9604  -2.6171  -1.2836  -0.1415

          k =-0.5121 0.0986 0.0000 ( 13381 PWs)   bands (ev):

   -60.3008 -34.6660 -34.4641 -34.4427 -11.8434 -11.6704  -5.1026  -4.6763
    -3.5258  -2.9172  -2.0157  -1.3723  -0.1117

          k =-0.5121 0.1971 0.0000 ( 13348 PWs)   bands (ev):

   -60.3008 -34.7043 -34.4641 -34.4028 -11.8271 -11.6834  -5.4410  -4.6179
    -3.7342  -2.8464  -1.5149  -1.0999  -0.1138

          k =-0.5121-0.8862 0.0000 ( 13312 PWs)   bands (ev):

   -60.3007 -34.7201 -34.4641 -34.3863 -11.8189 -11.6899  -5.5858  -4.5861
    -3.8021  -2.8224  -1.5668  -0.5009  -0.2905

     highest occupied level (ev):     0.3754

!    total energy              =    -489.75730204 Ry

     total all-electron energy =     -9688.215147 Ry
     estimated scf accuracy    <          4.7E-13 Ry

     The total energy is the sum of the following terms:
     one-electron contribution =    -813.90481123 Ry
     hartree contribution      =     410.77361658 Ry
     xc contribution           =     -29.52477702 Ry
     ewald contribution        =     255.78841210 Ry
     one-center paw contrib.   =    -312.88974248 Ry

     convergence has been achieved in  30 iterations

     negative rho (up, down):  2.262E-04 0.000E+00

     Forces acting on atoms (cartesian axes, Ry/au):

     atom    1 type  1   force =     0.00026887    0.00012909   -0.00000089
     atom    2 type  2   force =    -0.00013444   -0.00006454   -0.00031731
     atom    3 type  2   force =    -0.00013443   -0.00006455    0.00031820

     Total force =     0.000579     Total SCF correction =     0.000003


     Computing stress (Cartesian axis) and pressure


     negative rho (up, down):  2.262E-04 0.000E+00
          total   stress  (Ry/bohr**3)                   (kbar)     P=        0.44
   0.00000797  -0.00000085   0.00000000            1.17       -0.13        0.00
  -0.00000085   0.00000483  -0.00000000           -0.13        0.71       -0.00
   0.00000000  -0.00000000  -0.00000385            0.00       -0.00       -0.57


     Writing output data file /scratch/as3359/MoS2-CT/MoS2.save/
 
     init_run     :      7.28s CPU      4.06s WALL (       1 calls)
     electrons    :    262.25s CPU    135.58s WALL (       1 calls)
     forces       :      2.64s CPU      1.35s WALL (       1 calls)
     stress       :      7.58s CPU      3.89s WALL (       1 calls)

     Called by init_run:
     wfcinit      :      3.60s CPU      1.86s WALL (       1 calls)
     potinit      :      1.06s CPU      0.54s WALL (       1 calls)
     hinit0       :      2.28s CPU      1.46s WALL (       1 calls)

     Called by electrons:
     c_bands      :    204.76s CPU    104.28s WALL (      31 calls)
     sum_band     :     40.55s CPU     21.50s WALL (      31 calls)
     v_of_rho     :      3.86s CPU      2.07s WALL (      31 calls)
     newd         :      5.96s CPU      3.87s WALL (      31 calls)
     PAW_pot      :      5.72s CPU      2.97s WALL (      31 calls)
     mix_rho      :      1.13s CPU      0.59s WALL (      31 calls)

     Called by c_bands:
     init_us_2    :      8.17s CPU      4.14s WALL (    4810 calls)
     cegterg      :    189.90s CPU     96.68s WALL (    2294 calls)

     Called by *egterg:
     cdiaghg      :      3.59s CPU      1.83s WALL (    9503 calls)
     h_psi        :    161.56s CPU     82.37s WALL (    9651 calls)
     s_psi        :      4.86s CPU      2.46s WALL (    9651 calls)
     g_psi        :      1.41s CPU      0.71s WALL (    7283 calls)

     Called by h_psi:
     h_psi:calbec :      5.13s CPU      2.61s WALL (    9651 calls)
     vloc_psi     :    148.90s CPU     75.96s WALL (    9651 calls)
     add_vuspsi   :      5.88s CPU      2.98s WALL (    9651 calls)

     General routines
     calbec       :      6.64s CPU      3.39s WALL (   12315 calls)
     fft          :      1.77s CPU      0.91s WALL (     427 calls)
     ffts         :      0.16s CPU      0.08s WALL (      62 calls)
     fftw         :    148.52s CPU     75.73s WALL (  193756 calls)
     interpolate  :      0.33s CPU      0.17s WALL (      31 calls)
 
     Parallel routines
 
     PWSCF        :   4m41.96s CPU   2m27.05s WALL

 
   This run was terminated on:  12: 0:41   6Apr2022            

=------------------------------------------------------------------------------=
   JOB DONE.
=------------------------------------------------------------------------------=
