
     Program PWSCF v.6.8 starts on  6Apr2022 at 12:50:51 

     This program is part of the open-source Quantum ESPRESSO suite
     for quantum simulation of materials; please cite
         "P. Giannozzi et al., J. Phys.:Condens. Matter 21 395502 (2009);
         "P. Giannozzi et al., J. Phys.:Condens. Matter 29 465901 (2017);
         "P. Giannozzi et al., J. Chem. Phys. 152 154105 (2020);
          URL http://www.quantum-espresso.org", 
     in publications or presentations arising from this work. More details at
     http://www.quantum-espresso.org/quote

     Parallel version (MPI & OpenMP), running on       4 processor cores
     Number of MPI processes:                 2
     Threads/MPI process:                     2

     MPI processes distributed on     1 nodes
     R & G space division:  proc/nbgrp/npool/nimage =       2
     124997 MiB available memory on the printing compute node when the environment starts
 
     Reading input from MoS2.scf.150.in

     Current dimensions of program PWSCF are:
     Max number of different atomic species (ntypx) = 10
     Max number of k-points (npk) =  40000
     Max angular momentum in pseudopotentials (lmaxx) =  4
     file Mo.pbesol-spn-kjpaw_psl.1.0.0.UPF: wavefunction(s)  4S 4D renormalized
     file S.pbesol-nl-kjpaw_psl.1.0.0.UPF: wavefunction(s)  3S renormalized

     Subspace diagonalization in iterative solution of the eigenvalue problem:
     a serial algorithm will be used

 
     Parallelization info
     --------------------
     sticks:   dense  smooth     PW     G-vecs:    dense   smooth      PW
     Min         906     729    216               160350   114719   18452
     Max         907     730    217               160363   114728   18453
     Sum        1813    1459    433               320713   229447   36905
 
     Using Slab Decomposition
 


     bravais-lattice index     =            0
     lattice parameter (alat)  =       6.0720  a.u.
     unit-cell volume          =     924.7995 (a.u.)^3
     number of atoms/cell      =            3
     number of atomic types    =            2
     number of electrons       =        26.00
     number of Kohn-Sham states=           13
     kinetic-energy cutoff     =     150.0000  Ry
     charge density cutoff     =     750.0000  Ry
     scf convergence threshold =      1.0E-12
     mixing beta               =       0.7000
     number of iterations used =            8  plain     mixing
     Exchange-correlation= SLA  PW   PSX  PSC
                           (   1   4  10   8   0   0   0)

     celldm(1)=   6.072000  celldm(2)=   0.000000  celldm(3)=   0.000000
     celldm(4)=   0.000000  celldm(5)=   0.000000  celldm(6)=   0.000000

     crystal axes: (cart. coord. in units of alat)
               a(1) = (   0.976384  -0.000017   0.000000 )  
               a(2) = (  -0.487931   0.846187   0.000000 )  
               a(3) = (   0.000000   0.000000   5.000000 )  

     reciprocal axes: (cart. coord. in units 2 pi/alat)
               b(1) = (  1.024198  0.590577  0.000000 )  
               b(2) = (  0.000021  1.181785  0.000000 )  
               b(3) = (  0.000000  0.000000  0.200000 )  


     PseudoPot. # 1 for Mo read from file:
     /shared/home/as3359/pseudo/Mo.pbesol-spn-kjpaw_psl.1.0.0.UPF
     MD5 check sum: de57925cfc675213e43241dcc441eda8
     Pseudo is Projector augmented-wave + core cor, Zval = 14.0
     Generated using &quot;atomic&quot; code by A. Dal Corso  v.6.3
     Shape of augmentation charge: PSQ
     Using radial grid of 1229 points,  6 beta functions with: 
                l(1) =   0
                l(2) =   0
                l(3) =   1
                l(4) =   1
                l(5) =   2
                l(6) =   2
     Q(r) pseudized with 0 coefficients 


     PseudoPot. # 2 for S  read from file:
     /shared/home/as3359/pseudo/S.pbesol-nl-kjpaw_psl.1.0.0.UPF
     MD5 check sum: bf3db50ec3f960682bbc396f1aadd1dd
     Pseudo is Projector augmented-wave + core cor, Zval =  6.0
     Generated using &quot;atomic&quot; code by A. Dal Corso  v.6.3
     Shape of augmentation charge: PSQ
     Using radial grid of 1151 points,  4 beta functions with: 
                l(1) =   0
                l(2) =   0
                l(3) =   1
                l(4) =   1
     Q(r) pseudized with 0 coefficients 


     atomic species   valence    mass     pseudopotential
        Mo            14.00    95.94000     Mo( 1.00)
        S              6.00    32.06500     S ( 1.00)

     No symmetry found



   Cartesian axes

     site n.     atom                  positions (alat units)
         1           Mo  tau(   1) = (   0.0000000   0.0000000   1.6880765  )
         2           S   tau(   2) = (   0.4883508   0.2821722   2.1737857  )
         3           S   tau(   3) = (   0.4883508   0.2821722   1.2023670  )

     number of k points=    74
                       cart. coord. in units 2pi/alat
        k(    1) = (   0.0000000   0.0000000   0.0000000), wk =   0.0138889
        k(    2) = (   0.0000017   0.0984820   0.0000000), wk =   0.0277778
        k(    3) = (   0.0000035   0.1969641   0.0000000), wk =   0.0277778
        k(    4) = (   0.0000052   0.2954461   0.0000000), wk =   0.0277778
        k(    5) = (   0.0000070   0.3939282   0.0000000), wk =   0.0277778
        k(    6) = (   0.0000087   0.4924102   0.0000000), wk =   0.0277778
        k(    7) = (  -0.0000105  -0.5908923   0.0000000), wk =   0.0138889
        k(    8) = (   0.0853498   0.0492147   0.0000000), wk =   0.0277778
        k(    9) = (   0.0853516   0.1476968   0.0000000), wk =   0.0277778
        k(   10) = (   0.0853533   0.2461788   0.0000000), wk =   0.0277778
        k(   11) = (   0.0853550   0.3446609   0.0000000), wk =   0.0277778
        k(   12) = (   0.0853568   0.4431429   0.0000000), wk =   0.0277778
        k(   13) = (   0.0853585   0.5416249   0.0000000), wk =   0.0277778
        k(   14) = (   0.0853394  -0.5416775   0.0000000), wk =   0.0277778
        k(   15) = (   0.0853411  -0.4431955   0.0000000), wk =   0.0277778
        k(   16) = (   0.0853428  -0.3447135   0.0000000), wk =   0.0277778
        k(   17) = (   0.0853446  -0.2462314   0.0000000), wk =   0.0277778
        k(   18) = (   0.0853463  -0.1477494   0.0000000), wk =   0.0277778
        k(   19) = (   0.0853481  -0.0492673   0.0000000), wk =   0.0277778
        k(   20) = (   0.1706996   0.0984294   0.0000000), wk =   0.0277778
        k(   21) = (   0.1707014   0.1969115   0.0000000), wk =   0.0277778
        k(   22) = (   0.1707031   0.2953935   0.0000000), wk =   0.0277778
        k(   23) = (   0.1707049   0.3938756   0.0000000), wk =   0.0277778
        k(   24) = (   0.1707066   0.4923576   0.0000000), wk =   0.0277778
        k(   25) = (   0.1707083   0.5908397   0.0000000), wk =   0.0277778
        k(   26) = (   0.1706892  -0.4924628   0.0000000), wk =   0.0277778
        k(   27) = (   0.1706909  -0.3939808   0.0000000), wk =   0.0277778
        k(   28) = (   0.1706927  -0.2954987   0.0000000), wk =   0.0277778
        k(   29) = (   0.1706944  -0.1970167   0.0000000), wk =   0.0277778
        k(   30) = (   0.1706961  -0.0985346   0.0000000), wk =   0.0277778
        k(   31) = (   0.1706979  -0.0000526   0.0000000), wk =   0.0277778
        k(   32) = (   0.2560494   0.1476442   0.0000000), wk =   0.0277778
        k(   33) = (   0.2560512   0.2461262   0.0000000), wk =   0.0277778
        k(   34) = (   0.2560529   0.3446082   0.0000000), wk =   0.0277778
        k(   35) = (   0.2560547   0.4430903   0.0000000), wk =   0.0277778
        k(   36) = (   0.2560564   0.5415723   0.0000000), wk =   0.0277778
        k(   37) = (   0.2560582   0.6400544   0.0000000), wk =   0.0277778
        k(   38) = (   0.2560390  -0.4432481   0.0000000), wk =   0.0277778
        k(   39) = (   0.2560407  -0.3447661   0.0000000), wk =   0.0277778
        k(   40) = (   0.2560425  -0.2462840   0.0000000), wk =   0.0277778
        k(   41) = (   0.2560442  -0.1478020   0.0000000), wk =   0.0277778
        k(   42) = (   0.2560460  -0.0493199   0.0000000), wk =   0.0277778
        k(   43) = (   0.2560477   0.0491621   0.0000000), wk =   0.0277778
        k(   44) = (   0.3413993   0.1968589   0.0000000), wk =   0.0277778
        k(   45) = (   0.3414010   0.2953409   0.0000000), wk =   0.0277778
        k(   46) = (   0.3414027   0.3938230   0.0000000), wk =   0.0277778
        k(   47) = (   0.3414045   0.4923050   0.0000000), wk =   0.0277778
        k(   48) = (   0.3414062   0.5907871   0.0000000), wk =   0.0277778
        k(   49) = (   0.3414080   0.6892691   0.0000000), wk =   0.0277778
        k(   50) = (   0.3413888  -0.3940334   0.0000000), wk =   0.0277778
        k(   51) = (   0.3413905  -0.2955513   0.0000000), wk =   0.0277778
        k(   52) = (   0.3413923  -0.1970693   0.0000000), wk =   0.0277778
        k(   53) = (   0.3413940  -0.0985872   0.0000000), wk =   0.0277778
        k(   54) = (   0.3413958  -0.0001052   0.0000000), wk =   0.0277778
        k(   55) = (   0.3413975   0.0983768   0.0000000), wk =   0.0277778
        k(   56) = (   0.4267491   0.2460736   0.0000000), wk =   0.0277778
        k(   57) = (   0.4267508   0.3445556   0.0000000), wk =   0.0277778
        k(   58) = (   0.4267526   0.4430377   0.0000000), wk =   0.0277778
        k(   59) = (   0.4267543   0.5415197   0.0000000), wk =   0.0277778
        k(   60) = (   0.4267560   0.6400018   0.0000000), wk =   0.0277778
        k(   61) = (   0.4267578   0.7384838   0.0000000), wk =   0.0277778
        k(   62) = (   0.4267386  -0.3448187   0.0000000), wk =   0.0277778
        k(   63) = (   0.4267404  -0.2463366   0.0000000), wk =   0.0277778
        k(   64) = (   0.4267421  -0.1478546   0.0000000), wk =   0.0277778
        k(   65) = (   0.4267438  -0.0493725   0.0000000), wk =   0.0277778
        k(   66) = (   0.4267456   0.0491095   0.0000000), wk =   0.0277778
        k(   67) = (   0.4267473   0.1475916   0.0000000), wk =   0.0277778
        k(   68) = (  -0.5120989  -0.2952883   0.0000000), wk =   0.0138889
        k(   69) = (  -0.5120971  -0.1968063   0.0000000), wk =   0.0277778
        k(   70) = (  -0.5120954  -0.0983242   0.0000000), wk =   0.0277778
        k(   71) = (  -0.5120937   0.0001578   0.0000000), wk =   0.0277778
        k(   72) = (  -0.5120919   0.0986398   0.0000000), wk =   0.0277778
        k(   73) = (  -0.5120902   0.1971219   0.0000000), wk =   0.0277778
        k(   74) = (  -0.5121093  -0.8861806   0.0000000), wk =   0.0138889

     Dense  grid:   320713 G-vectors     FFT dimensions: (  54,  54, 270)

     Smooth grid:   229447 G-vectors     FFT dimensions: (  48,  48, 240)

     Estimated max dynamical RAM per process >     815.30 MB

     Estimated total dynamical RAM >       1.59 GB

     Initial potential from superposition of free atoms

     starting charge   25.99914, renormalised to   26.00000

     negative rho (up, down):  5.180E-05 0.000E+00
     Starting wfcs are   18 randomized atomic wfcs
     Checking if some PAW data can be deallocated... 

     total cpu time spent up to now is        9.0 secs

     Self-consistent Calculation

     iteration #  1     ecut=   150.00 Ry     beta= 0.70
     Davidson diagonalization with overlap
     ethr =  1.00E-02,  avg # of iterations =  2.0

     Threshold (ethr) on eigenvalues was too large:
     Diagonalizing with lowered threshold

     Davidson diagonalization with overlap
     ethr =  3.45E-04,  avg # of iterations =  3.9

     negative rho (up, down):  5.045E-05 0.000E+00

     total cpu time spent up to now is       29.8 secs

     total energy              =    -489.69389157 Ry
     estimated scf accuracy    <       0.14284660 Ry

     iteration #  2     ecut=   150.00 Ry     beta= 0.70
     Davidson diagonalization with overlap
     ethr =  5.49E-04,  avg # of iterations =  5.2

     negative rho (up, down):  4.330E-05 0.000E+00

     total cpu time spent up to now is       43.5 secs

     total energy              =    -489.64942153 Ry
     estimated scf accuracy    <       0.56461967 Ry

     iteration #  3     ecut=   150.00 Ry     beta= 0.70
     Davidson diagonalization with overlap
     ethr =  5.49E-04,  avg # of iterations =  5.2

     negative rho (up, down):  4.292E-05 0.000E+00

     total cpu time spent up to now is       56.6 secs

     total energy              =    -489.75341643 Ry
     estimated scf accuracy    <       0.03234943 Ry

     iteration #  4     ecut=   150.00 Ry     beta= 0.70
     Davidson diagonalization with overlap
     ethr =  1.24E-04,  avg # of iterations =  2.6

     negative rho (up, down):  4.886E-05 0.000E+00

     total cpu time spent up to now is       66.2 secs

     total energy              =    -489.75561694 Ry
     estimated scf accuracy    <       0.00458828 Ry

     iteration #  5     ecut=   150.00 Ry     beta= 0.70
     Davidson diagonalization with overlap
     ethr =  1.76E-05,  avg # of iterations =  4.9

     negative rho (up, down):  4.934E-05 0.000E+00

     total cpu time spent up to now is       79.3 secs

     total energy              =    -489.75827915 Ry
     estimated scf accuracy    <       0.00431165 Ry

     iteration #  6     ecut=   150.00 Ry     beta= 0.70
     Davidson diagonalization with overlap
     ethr =  1.66E-05,  avg # of iterations =  1.0

     negative rho (up, down):  5.044E-05 0.000E+00

     total cpu time spent up to now is       87.6 secs

     total energy              =    -489.75757992 Ry
     estimated scf accuracy    <       0.00303578 Ry

     iteration #  7     ecut=   150.00 Ry     beta= 0.70
     Davidson diagonalization with overlap
     ethr =  1.17E-05,  avg # of iterations =  2.7

     negative rho (up, down):  5.147E-05 0.000E+00

     total cpu time spent up to now is       97.7 secs

     total energy              =    -489.75782923 Ry
     estimated scf accuracy    <       0.00039154 Ry

     iteration #  8     ecut=   150.00 Ry     beta= 0.70
     Davidson diagonalization with overlap
     ethr =  1.51E-06,  avg # of iterations =  4.6

     negative rho (up, down):  5.336E-05 0.000E+00

     total cpu time spent up to now is      109.8 secs

     total energy              =    -489.75794079 Ry
     estimated scf accuracy    <       0.00002619 Ry

     iteration #  9     ecut=   150.00 Ry     beta= 0.70
     Davidson diagonalization with overlap
     ethr =  1.01E-07,  avg # of iterations =  5.4

     negative rho (up, down):  5.333E-05 0.000E+00

     total cpu time spent up to now is      124.8 secs

     total energy              =    -489.75795159 Ry
     estimated scf accuracy    <       0.00011977 Ry

     iteration # 10     ecut=   150.00 Ry     beta= 0.70
     Davidson diagonalization with overlap
     ethr =  1.01E-07,  avg # of iterations =  3.5

     negative rho (up, down):  5.333E-05 0.000E+00

     total cpu time spent up to now is      135.7 secs

     total energy              =    -489.75792957 Ry
     estimated scf accuracy    <       0.00008143 Ry

     iteration # 11     ecut=   150.00 Ry     beta= 0.70
     Davidson diagonalization with overlap
     ethr =  1.01E-07,  avg # of iterations =  4.2

     negative rho (up, down):  5.345E-05 0.000E+00

     total cpu time spent up to now is      148.4 secs

     total energy              =    -489.75794331 Ry
     estimated scf accuracy    <       0.00001452 Ry

     iteration # 12     ecut=   150.00 Ry     beta= 0.70
     Davidson diagonalization with overlap
     ethr =  5.58E-08,  avg # of iterations =  3.3

     negative rho (up, down):  5.343E-05 0.000E+00

     total cpu time spent up to now is      158.6 secs

     total energy              =    -489.75794473 Ry
     estimated scf accuracy    <       0.00000235 Ry

     iteration # 13     ecut=   150.00 Ry     beta= 0.70
     Davidson diagonalization with overlap
     ethr =  9.04E-09,  avg # of iterations =  3.9

     negative rho (up, down):  5.345E-05 0.000E+00

     total cpu time spent up to now is      169.6 secs

     total energy              =    -489.75794519 Ry
     estimated scf accuracy    <       0.00000029 Ry

     iteration # 14     ecut=   150.00 Ry     beta= 0.70
     Davidson diagonalization with overlap
     ethr =  1.11E-09,  avg # of iterations =  4.5

     negative rho (up, down):  5.347E-05 0.000E+00

     total cpu time spent up to now is      181.4 secs

     total energy              =    -489.75794528 Ry
     estimated scf accuracy    <       0.00000009 Ry

     iteration # 15     ecut=   150.00 Ry     beta= 0.70
     Davidson diagonalization with overlap
     ethr =  3.42E-10,  avg # of iterations =  1.4

     negative rho (up, down):  5.348E-05 0.000E+00

     total cpu time spent up to now is      189.6 secs

     total energy              =    -489.75794526 Ry
     estimated scf accuracy    <       0.00000007 Ry

     iteration # 16     ecut=   150.00 Ry     beta= 0.70
     Davidson diagonalization with overlap
     ethr =  2.55E-10,  avg # of iterations =  3.4

     negative rho (up, down):  5.348E-05 0.000E+00

     total cpu time spent up to now is      200.0 secs

     total energy              =    -489.75794528 Ry
     estimated scf accuracy    <          4.4E-09 Ry

     iteration # 17     ecut=   150.00 Ry     beta= 0.70
     Davidson diagonalization with overlap
     ethr =  1.68E-11,  avg # of iterations =  5.9

     negative rho (up, down):  5.348E-05 0.000E+00

     total cpu time spent up to now is      214.3 secs

     total energy              =    -489.75794528 Ry
     estimated scf accuracy    <       0.00000002 Ry

     iteration # 18     ecut=   150.00 Ry     beta= 0.70
     Davidson diagonalization with overlap
     ethr =  1.68E-11,  avg # of iterations =  3.3

     negative rho (up, down):  5.348E-05 0.000E+00

     total cpu time spent up to now is      224.8 secs

     total energy              =    -489.75794528 Ry
     estimated scf accuracy    <          8.4E-09 Ry

     iteration # 19     ecut=   150.00 Ry     beta= 0.70
     Davidson diagonalization with overlap
     ethr =  1.68E-11,  avg # of iterations =  3.8

     negative rho (up, down):  5.348E-05 0.000E+00

     total cpu time spent up to now is      235.7 secs

     total energy              =    -489.75794528 Ry
     estimated scf accuracy    <          3.4E-10 Ry

     iteration # 20     ecut=   150.00 Ry     beta= 0.70
     Davidson diagonalization with overlap
     ethr =  1.29E-12,  avg # of iterations =  4.9

     negative rho (up, down):  5.348E-05 0.000E+00

     total cpu time spent up to now is      248.8 secs

     total energy              =    -489.75794528 Ry
     estimated scf accuracy    <          3.2E-10 Ry

     iteration # 21     ecut=   150.00 Ry     beta= 0.70
     Davidson diagonalization with overlap
     ethr =  1.22E-12,  avg # of iterations =  1.9

     negative rho (up, down):  5.348E-05 0.000E+00

     total cpu time spent up to now is      257.6 secs

     total energy              =    -489.75794528 Ry
     estimated scf accuracy    <          7.1E-11 Ry

     iteration # 22     ecut=   150.00 Ry     beta= 0.70
     Davidson diagonalization with overlap
     ethr =  2.73E-13,  avg # of iterations =  4.1

     negative rho (up, down):  5.348E-05 0.000E+00

     total cpu time spent up to now is      269.0 secs

     total energy              =    -489.75794528 Ry
     estimated scf accuracy    <          2.7E-12 Ry

     iteration # 23     ecut=   150.00 Ry     beta= 0.70
     Davidson diagonalization with overlap
     ethr =  1.00E-13,  avg # of iterations =  2.7

     negative rho (up, down):  5.348E-05 0.000E+00

     total cpu time spent up to now is      278.9 secs

     total energy              =    -489.75794528 Ry
     estimated scf accuracy    <          2.5E-11 Ry

     iteration # 24     ecut=   150.00 Ry     beta= 0.70
     Davidson diagonalization with overlap
     ethr =  1.00E-13,  avg # of iterations =  1.0

     negative rho (up, down):  5.348E-05 0.000E+00

     total cpu time spent up to now is      286.9 secs

     total energy              =    -489.75794528 Ry
     estimated scf accuracy    <          1.4E-11 Ry

     iteration # 25     ecut=   150.00 Ry     beta= 0.70
     Davidson diagonalization with overlap
     ethr =  1.00E-13,  avg # of iterations =  1.5

     negative rho (up, down):  5.348E-05 0.000E+00

     total cpu time spent up to now is      295.3 secs

     total energy              =    -489.75794528 Ry
     estimated scf accuracy    <          2.8E-12 Ry

     iteration # 26     ecut=   150.00 Ry     beta= 0.70
     Davidson diagonalization with overlap
     ethr =  1.00E-13,  avg # of iterations =  1.0

     negative rho (up, down):  5.348E-05 0.000E+00

     total cpu time spent up to now is      303.3 secs

     total energy              =    -489.75794528 Ry
     estimated scf accuracy    <          1.7E-12 Ry

     iteration # 27     ecut=   150.00 Ry     beta= 0.70
     Davidson diagonalization with overlap
     ethr =  1.00E-13,  avg # of iterations =  1.0

     negative rho (up, down):  5.348E-05 0.000E+00

     total cpu time spent up to now is      311.3 secs

     total energy              =    -489.75794528 Ry
     estimated scf accuracy    <          1.3E-12 Ry

     iteration # 28     ecut=   150.00 Ry     beta= 0.70
     Davidson diagonalization with overlap
     ethr =  1.00E-13,  avg # of iterations =  1.0

     negative rho (up, down):  5.348E-05 0.000E+00

     total cpu time spent up to now is      319.3 secs

     End of self-consistent calculation

          k = 0.0000 0.0000 0.0000 ( 28805 PWs)   bands (ev):

   -60.3488 -34.5534 -34.2856 -34.2843 -13.8551 -12.5035  -5.4143  -2.2345
    -2.2258  -1.4938  -1.0735  -1.0671   0.2790

          k = 0.0000 0.0985 0.0000 ( 28764 PWs)   bands (ev):

   -60.3457 -34.5474 -34.3156 -34.2911 -13.7453 -12.4582  -5.2904  -2.4746
    -2.1114  -1.9584  -1.2405  -0.7776   0.2367

          k = 0.0000 0.1970 0.0000 ( 28738 PWs)   bands (ev):

   -60.3374 -34.5312 -34.3969 -34.3095 -13.4325 -12.3293  -4.9797  -3.0229
    -2.6261  -1.7910  -1.6470  -0.7039   0.0215

          k = 0.0000 0.2954 0.0000 ( 28718 PWs)   bands (ev):

   -60.3259 -34.5089 -34.5063 -34.3346 -12.9679 -12.1393  -4.7596  -3.4844
    -3.3109  -2.1006  -1.3425  -0.9771  -0.4115

          k = 0.0000 0.3939 0.0000 ( 28710 PWs)   bands (ev):

   -60.3145 -34.6140 -34.4865 -34.3595 -12.4426 -11.9294  -5.0167  -3.9457
    -3.5887  -2.4810  -1.3007  -0.8970  -0.6651

          k = 0.0000 0.4924 0.0000 ( 28688 PWs)   bands (ev):

   -60.3061 -34.6917 -34.4701 -34.3777 -12.0008 -11.7597  -5.4146  -4.4117
    -3.7136  -2.7276  -1.5046  -0.5932  -0.4739

          k =-0.0000-0.5909 0.0000 ( 28648 PWs)   bands (ev):

   -60.3030 -34.7199 -34.4640 -34.3843 -11.8218 -11.6934  -5.5871  -4.5845
    -3.8030  -2.8125  -1.5698  -0.4918  -0.2950

          k = 0.0853 0.0492 0.0000 ( 28768 PWs)   bands (ev):

   -60.3457 -34.5474 -34.3149 -34.2919 -13.7452 -12.4581  -5.2903  -2.4711
    -2.1153  -1.9561  -1.2459  -0.7748   0.2371

          k = 0.0854 0.1477 0.0000 ( 28720 PWs)   bands (ev):

   -60.3400 -34.5363 -34.3695 -34.3055 -13.5339 -12.3708  -5.0691  -2.8609
    -2.4003  -1.9033  -1.6499  -0.5821   0.1087

          k = 0.0854 0.2462 0.0000 ( 28728 PWs)   bands (ev):

   -60.3301 -34.5171 -34.4610 -34.3310 -13.1441 -12.2102  -4.7707  -3.3489
    -2.9634  -2.2308  -1.5737  -0.6198  -0.2246

          k = 0.0854 0.3447 0.0000 ( 28723 PWs)   bands (ev):

   -60.3187 -34.5648 -34.4947 -34.3607 -12.6453 -12.0067  -4.7989  -3.6378
    -3.5306  -2.6167  -1.3410  -0.9377  -0.5031

          k = 0.0854 0.4431 0.0000 ( 28687 PWs)   bands (ev):

   -60.3088 -34.6534 -34.4753 -34.3863 -12.1522 -11.8106  -5.1608  -4.2546
    -3.5839  -2.7873  -1.2949  -1.2408  -0.3610

          k = 0.0854 0.5416 0.0000 ( 28663 PWs)   bands (ev):

   -60.3030 -34.7041 -34.4640 -34.4010 -11.8299 -11.6867  -5.4416  -4.6159
    -3.7354  -2.8382  -1.5175  -1.0958  -0.1135

          k = 0.0853-0.5417 0.0000 ( 28659 PWs)   bands (ev):

   -60.3030 -34.7041 -34.4640 -34.4010 -11.8298 -11.6866  -5.4418  -4.6158
    -3.7354  -2.8388  -1.5170  -1.0949  -0.1145

          k = 0.0853-0.4432 0.0000 ( 28691 PWs)   bands (ev):

   -60.3088 -34.6536 -34.4753 -34.3863 -12.1519 -11.8105  -5.1613  -4.2544
    -3.5840  -2.7884  -1.2938  -1.2387  -0.3633

          k = 0.0853-0.3447 0.0000 ( 28725 PWs)   bands (ev):

   -60.3187 -34.5650 -34.4947 -34.3607 -12.6449 -12.0066  -4.7990  -3.6378
    -3.5307  -2.6173  -1.3392  -0.9368  -0.5054

          k = 0.0853-0.2462 0.0000 ( 28726 PWs)   bands (ev):

   -60.3301 -34.5170 -34.4611 -34.3312 -13.1438 -12.2101  -4.7705  -3.3483
    -2.9643  -2.2302  -1.5742  -0.6195  -0.2255

          k = 0.0853-0.1477 0.0000 ( 28718 PWs)   bands (ev):

   -60.3400 -34.5363 -34.3693 -34.3058 -13.5336 -12.3707  -5.0689  -2.8588
    -2.4013  -1.9059  -1.6489  -0.5821   0.1086

          k = 0.0853-0.0493 0.0000 ( 28774 PWs)   bands (ev):

   -60.3457 -34.5474 -34.3146 -34.2922 -13.7451 -12.4580  -5.2902  -2.4680
    -2.1187  -1.9566  -1.2455  -0.7748   0.2371

          k = 0.1707 0.0984 0.0000 ( 28731 PWs)   bands (ev):

   -60.3373 -34.5311 -34.3963 -34.3104 -13.4322 -12.3288  -4.9795  -3.0203
    -2.6233  -1.7948  -1.6528  -0.7025   0.0232

          k = 0.1707 0.1969 0.0000 ( 28737 PWs)   bands (ev):

   -60.3301 -34.5170 -34.4607 -34.3315 -13.1439 -12.2098  -4.7708  -3.3474
    -2.9612  -2.2344  -1.5757  -0.6198  -0.2233

          k = 0.1707 0.2954 0.0000 ( 28731 PWs)   bands (ev):

   -60.3202 -34.5395 -34.4977 -34.3688 -12.7171 -12.0329  -4.6895  -3.4871
    -3.3881  -2.8933  -1.5785  -0.6546  -0.4346

          k = 0.1707 0.3939 0.0000 ( 28700 PWs)   bands (ev):

   -60.3103 -34.6134 -34.4783 -34.4099 -12.2399 -11.8351  -4.8884  -4.1145
    -3.3892  -3.0079  -1.8997  -0.9772  -0.3637

          k = 0.1707 0.4924 0.0000 ( 28672 PWs)   bands (ev):

   -60.3030 -34.6656 -34.4640 -34.4413 -11.8458 -11.6730  -5.1012  -4.6737
    -3.5275  -2.9126  -2.0139  -1.3740  -0.1094

          k = 0.1707 0.5908 0.0000 ( 28650 PWs)   bands (ev):

   -60.3003 -34.6845 -34.4588 -34.4530 -11.6889 -11.6090  -5.1812  -4.8775
    -3.6692  -2.8311  -1.9983  -1.5662   0.0716

          k = 0.1707-0.4925 0.0000 ( 28668 PWs)   bands (ev):

   -60.3030 -34.6658 -34.4640 -34.4413 -11.8453 -11.6728  -5.1019  -4.6736
    -3.5278  -2.9137  -2.0123  -1.3730  -0.1110

          k = 0.1707-0.3940 0.0000 ( 28700 PWs)   bands (ev):

   -60.3103 -34.6136 -34.4782 -34.4099 -12.2391 -11.8348  -4.8891  -4.1142
    -3.3893  -3.0093  -1.8976  -0.9762  -0.3661

          k = 0.1707-0.2955 0.0000 ( 28735 PWs)   bands (ev):

   -60.3202 -34.5396 -34.4976 -34.3689 -12.7164 -12.0326  -4.6896  -3.4863
    -3.3883  -2.8940  -1.5779  -0.6538  -0.4369

          k = 0.1707-0.1970 0.0000 ( 28737 PWs)   bands (ev):

   -60.3301 -34.5170 -34.4606 -34.3319 -13.1433 -12.2096  -4.7704  -3.3456
    -2.9618  -2.2345  -1.5779  -0.6192  -0.2240

          k = 0.1707-0.0985 0.0000 ( 28733 PWs)   bands (ev):

   -60.3373 -34.5311 -34.3961 -34.3108 -13.4319 -12.3286  -4.9792  -3.0180
    -2.6236  -1.7979  -1.6534  -0.7018   0.0233

          k = 0.1707-0.0001 0.0000 ( 28721 PWs)   bands (ev):

   -60.3400 -34.5363 -34.3688 -34.3065 -13.5334 -12.3704  -5.0687  -2.8570
    -2.3994  -1.9089  -1.6524  -0.5812   0.1096

          k = 0.2560 0.1476 0.0000 ( 28722 PWs)   bands (ev):

   -60.3259 -34.5088 -34.5059 -34.3355 -12.9672 -12.1381  -4.7596  -3.4821
    -3.3087  -2.1068  -1.3463  -0.9762  -0.4087

          k = 0.2561 0.2461 0.0000 ( 28724 PWs)   bands (ev):

   -60.3186 -34.5644 -34.4946 -34.3615 -12.6447 -12.0056  -4.7988  -3.6360
    -3.5286  -2.6214  -1.3437  -0.9375  -0.5016

          k = 0.2561 0.3446 0.0000 ( 28698 PWs)   bands (ev):

   -60.3103 -34.6132 -34.4783 -34.4104 -12.2395 -11.8344  -4.8881  -4.1143
    -3.3882  -3.0097  -1.9011  -0.9771  -0.3633

          k = 0.2561 0.4431 0.0000 ( 28668 PWs)   bands (ev):

   -60.3030 -34.6397 -34.4683 -34.4640 -11.8534 -11.6656  -4.8956  -4.7008
    -3.2618  -2.9581  -2.6205  -1.2850  -0.1374

          k = 0.2561 0.5416 0.0000 ( 28629 PWs)   bands (ev):

   -60.2988 -34.6453 -34.5115 -34.4558 -11.6121 -11.5569  -5.0667  -4.7707
    -3.5326  -2.8882  -2.7486  -1.6396   0.1798

          k = 0.2561 0.6401 0.0000 ( 28619 PWs)   bands (ev):

   -60.2988 -34.6455 -34.5115 -34.4558 -11.6117 -11.5568  -5.0667  -4.7713
    -3.5330  -2.8872  -2.7492  -1.6392   0.1791

          k = 0.2560-0.4432 0.0000 ( 28670 PWs)   bands (ev):

   -60.3029 -34.6400 -34.4683 -34.4640 -11.8525 -11.6653  -4.8966  -4.7007
    -3.2622  -2.9594  -2.6187  -1.2843  -0.1390

          k = 0.2560-0.3448 0.0000 ( 28694 PWs)   bands (ev):

   -60.3102 -34.6134 -34.4782 -34.4106 -12.2384 -11.8340  -4.8888  -4.1141
    -3.3870  -3.0113  -1.9007  -0.9764  -0.3655

          k = 0.2560-0.2463 0.0000 ( 28715 PWs)   bands (ev):

   -60.3186 -34.5645 -34.4946 -34.3619 -12.6437 -12.0052  -4.7988  -3.6359
    -3.5266  -2.6231  -1.3445  -0.9369  -0.5035

          k = 0.2560-0.1478 0.0000 ( 28722 PWs)   bands (ev):

   -60.3259 -34.5088 -34.5057 -34.3360 -12.9665 -12.1378  -4.7593  -3.4799
    -3.3086  -2.1083  -1.3492  -0.9755  -0.4087

          k = 0.2560-0.0493 0.0000 ( 28743 PWs)   bands (ev):

   -60.3300 -34.5169 -34.4605 -34.3322 -13.1429 -12.2090  -4.7702  -3.3460
    -2.9621  -2.2352  -1.5783  -0.6191  -0.2234

          k = 0.2560 0.0492 0.0000 ( 28734 PWs)   bands (ev):

   -60.3301 -34.5170 -34.4606 -34.3320 -13.1432 -12.2091  -4.7704  -3.3472
    -2.9623  -2.2345  -1.5766  -0.6193  -0.2236

          k = 0.3414 0.1969 0.0000 ( 28710 PWs)   bands (ev):

   -60.3144 -34.6136 -34.4864 -34.3605 -12.4416 -11.9274  -5.0165  -3.9452
    -3.5869  -2.4877  -1.2991  -0.9014  -0.6619

          k = 0.3414 0.2953 0.0000 ( 28689 PWs)   bands (ev):

   -60.3087 -34.6531 -34.4752 -34.3873 -12.1513 -11.8086  -5.1600  -4.2548
    -3.5828  -2.7923  -1.2938  -1.2431  -0.3601

          k = 0.3414 0.3938 0.0000 ( 28666 PWs)   bands (ev):

   -60.3030 -34.6653 -34.4640 -34.4421 -11.8451 -11.6714  -5.1003  -4.6748
    -3.5270  -2.9153  -2.0164  -1.3729  -0.1082

          k = 0.3414 0.4923 0.0000 ( 28631 PWs)   bands (ev):

   -60.2987 -34.6451 -34.5120 -34.4558 -11.6117 -11.5561  -5.0676  -4.7703
    -3.5322  -2.8898  -2.7499  -1.6387   0.1803

          k = 0.3414 0.5908 0.0000 ( 28574 PWs)   bands (ev):

   -60.2972 -34.6127 -34.5627 -34.4527 -11.5243 -11.5099  -5.2234  -4.3603
    -3.8338  -3.2102  -2.5872  -1.8344   0.3756

          k = 0.3414 0.6893 0.0000 ( 28629 PWs)   bands (ev):

   -60.2987 -34.6453 -34.5121 -34.4557 -11.6109 -11.5558  -5.0677  -4.7709
    -3.5317  -2.8898  -2.7507  -1.6385   0.1798

          k = 0.3414-0.3940 0.0000 ( 28668 PWs)   bands (ev):

   -60.3029 -34.6655 -34.4639 -34.4424 -11.8438 -11.6709  -5.1009  -4.6748
    -3.5258  -2.9169  -2.0169  -1.3726  -0.1093

          k = 0.3414-0.2956 0.0000 ( 28693 PWs)   bands (ev):

   -60.3086 -34.6532 -34.4751 -34.3877 -12.1499 -11.8081  -5.1602  -4.2544
    -3.5810  -2.7946  -1.2933  -1.2438  -0.3621

          k = 0.3414-0.1971 0.0000 ( 28714 PWs)   bands (ev):

   -60.3144 -34.6136 -34.4863 -34.3610 -12.4405 -11.9269  -5.0163  -3.9449
    -3.5847  -2.4899  -1.2988  -0.9041  -0.6621

          k = 0.3414-0.0986 0.0000 ( 28715 PWs)   bands (ev):

   -60.3186 -34.5646 -34.4945 -34.3620 -12.6432 -12.0046  -4.7992  -3.6371
    -3.5273  -2.6228  -1.3428  -0.9367  -0.5046

          k = 0.3414-0.0001 0.0000 ( 28729 PWs)   bands (ev):

   -60.3201 -34.5396 -34.4976 -34.3695 -12.7156 -12.0314  -4.6900  -3.4869
    -3.3897  -2.8948  -1.5765  -0.6537  -0.4375

          k = 0.3414 0.0984 0.0000 ( 28719 PWs)   bands (ev):

   -60.3186 -34.5647 -34.4946 -34.3616 -12.6438 -12.0049  -4.7994  -3.6374
    -3.5293  -2.6217  -1.3402  -0.9364  -0.5049

          k = 0.4267 0.2461 0.0000 ( 28693 PWs)   bands (ev):

   -60.3060 -34.6914 -34.4699 -34.3788 -11.9994 -11.7570  -5.4137  -4.4127
    -3.7130  -2.7346  -1.5020  -0.5985  -0.4702

          k = 0.4268 0.3446 0.0000 ( 28657 PWs)   bands (ev):

   -60.3029 -34.7038 -34.4639 -34.4020 -11.8287 -11.6841  -5.4403  -4.6175
    -3.7353  -2.8438  -1.5151  -1.0988  -0.1120

          k = 0.4268 0.4430 0.0000 ( 28650 PWs)   bands (ev):

   -60.3003 -34.6843 -34.4587 -34.4538 -11.6878 -11.6069  -5.1805  -4.8795
    -3.6691  -2.8346  -2.0007  -1.5640   0.0725

          k = 0.4268 0.5415 0.0000 ( 28625 PWs)   bands (ev):

   -60.2987 -34.6453 -34.5120 -34.4557 -11.6109 -11.5554  -5.0684  -4.7721
    -3.5320  -2.8882  -2.7510  -1.6377   0.1783

          k = 0.4268 0.6400 0.0000 ( 28629 PWs)   bands (ev):

   -60.2987 -34.6453 -34.5122 -34.4557 -11.6104 -11.5552  -5.0685  -4.7721
    -3.5312  -2.8894  -2.7511  -1.6380   0.1785

          k = 0.4268 0.7385 0.0000 ( 28648 PWs)   bands (ev):

   -60.3002 -34.6844 -34.4586 -34.4542 -11.6866 -11.6064  -5.1806  -4.8797
    -3.6682  -2.8356  -2.0022  -1.5643   0.0727

          k = 0.4267-0.3448 0.0000 ( 28653 PWs)   bands (ev):

   -60.3029 -34.7040 -34.4638 -34.4025 -11.8271 -11.6834  -5.4404  -4.6173
    -3.7341  -2.8461  -1.5149  -1.1003  -0.1127

          k = 0.4267-0.2463 0.0000 ( 28697 PWs)   bands (ev):

   -60.3059 -34.6915 -34.4698 -34.3793 -11.9979 -11.7563  -5.4135  -4.4123
    -3.7115  -2.7371  -1.5018  -0.6014  -0.4699

          k = 0.4267-0.1479 0.0000 ( 28697 PWs)   bands (ev):

   -60.3086 -34.6533 -34.4751 -34.3877 -12.1495 -11.8076  -5.1611  -4.2554
    -3.5810  -2.7945  -1.2929  -1.2423  -0.3637

          k = 0.4267-0.0494 0.0000 ( 28694 PWs)   bands (ev):

   -60.3102 -34.6135 -34.4781 -34.4108 -12.2376 -11.8328  -4.8902  -4.1162
    -3.3876  -3.0112  -1.8979  -0.9759  -0.3677

          k = 0.4267 0.0491 0.0000 ( 28698 PWs)   bands (ev):

   -60.3102 -34.6136 -34.4781 -34.4106 -12.2379 -11.8330  -4.8903  -4.1163
    -3.3889  -3.0109  -1.8963  -0.9755  -0.3679

          k = 0.4267 0.1476 0.0000 ( 28695 PWs)   bands (ev):

   -60.3087 -34.6534 -34.4751 -34.3873 -12.1505 -11.8081  -5.1614  -4.2556
    -3.5829  -2.7933  -1.2923  -1.2395  -0.3640

          k =-0.5121-0.2953 0.0000 ( 28644 PWs)   bands (ev):

   -60.3029 -34.7197 -34.4639 -34.3854 -11.8203 -11.6904  -5.5858  -4.5862
    -3.8031  -2.8195  -1.5667  -0.4976  -0.2911

          k =-0.5121-0.1968 0.0000 ( 28655 PWs)   bands (ev):

   -60.3029 -34.7039 -34.4639 -34.4020 -11.8283 -11.6838  -5.4410  -4.6178
    -3.7352  -2.8445  -1.5143  -1.0974  -0.1140

          k =-0.5121-0.0983 0.0000 ( 28664 PWs)   bands (ev):

   -60.3029 -34.6657 -34.4639 -34.4421 -11.8440 -11.6706  -5.1025  -4.6759
    -3.5270  -2.9166  -2.0133  -1.3714  -0.1119

          k =-0.5121 0.0002 0.0000 ( 28656 PWs)   bands (ev):

   -60.3029 -34.6401 -34.4687 -34.4639 -11.8515 -11.6638  -4.8984  -4.7028
    -3.2623  -2.9602  -2.6169  -1.2834  -0.1413

          k =-0.5121 0.0986 0.0000 ( 28670 PWs)   bands (ev):

   -60.3029 -34.6657 -34.4638 -34.4424 -11.8432 -11.6702  -5.1023  -4.6760
    -3.5256  -2.9170  -2.0155  -1.3721  -0.1115

          k =-0.5121 0.1971 0.0000 ( 28653 PWs)   bands (ev):

   -60.3029 -34.7040 -34.4638 -34.4025 -11.8269 -11.6832  -5.4408  -4.6177
    -3.7340  -2.8462  -1.5147  -1.0997  -0.1136

          k =-0.5121-0.8862 0.0000 ( 28640 PWs)   bands (ev):

   -60.3028 -34.7198 -34.4638 -34.3860 -11.8187 -11.6897  -5.5856  -4.5859
    -3.8019  -2.8222  -1.5666  -0.5006  -0.2903

     highest occupied level (ev):     0.3756

!    total energy              =    -489.75794528 Ry

     total all-electron energy =     -9688.215791 Ry
     estimated scf accuracy    <          2.9E-13 Ry

     The total energy is the sum of the following terms:
     one-electron contribution =    -813.90639497 Ry
     hartree contribution      =     410.77424577 Ry
     xc contribution           =     -29.52474102 Ry
     ewald contribution        =     255.78841210 Ry
     one-center paw contrib.   =    -312.88946716 Ry

     convergence has been achieved in  28 iterations

     negative rho (up, down):  5.348E-05 0.000E+00

     Forces acting on atoms (cartesian axes, Ry/au):

     atom    1 type  1   force =     0.00026880    0.00012890   -0.00000073
     atom    2 type  2   force =    -0.00013439   -0.00006445   -0.00032630
     atom    3 type  2   force =    -0.00013441   -0.00006445    0.00032703

     Total force =     0.000589     Total SCF correction =     0.000002


     Computing stress (Cartesian axis) and pressure


     negative rho (up, down):  5.348E-05 0.000E+00
          total   stress  (Ry/bohr**3)                   (kbar)     P=        0.63
   0.00000927  -0.00000085   0.00000000            1.36       -0.13        0.00
  -0.00000085   0.00000613   0.00000000           -0.13        0.90        0.00
   0.00000000   0.00000000  -0.00000259            0.00        0.00       -0.38


     Writing output data file /scratch/as3359/MoS2-CT/MoS2.save/
 
     init_run     :     15.66s CPU      8.88s WALL (       1 calls)
     electrons    :    603.38s CPU    310.30s WALL (       1 calls)
     forces       :      6.02s CPU      3.08s WALL (       1 calls)
     stress       :     16.89s CPU      8.68s WALL (       1 calls)

     Called by init_run:
     wfcinit      :      8.60s CPU      4.42s WALL (       1 calls)
     potinit      :      2.08s CPU      1.07s WALL (       1 calls)
     hinit0       :      4.24s CPU      2.95s WALL (       1 calls)

     Called by electrons:
     c_bands      :    481.76s CPU    244.41s WALL (      29 calls)
     sum_band     :     93.11s CPU     49.04s WALL (      29 calls)
     v_of_rho     :      7.25s CPU      4.01s WALL (      29 calls)
     newd         :     12.60s CPU      8.13s WALL (      29 calls)
     PAW_pot      :      5.66s CPU      2.94s WALL (      29 calls)
     mix_rho      :      2.76s CPU      1.66s WALL (      29 calls)

     Called by c_bands:
     init_us_2    :     20.22s CPU     10.14s WALL (    4514 calls)
     cegterg      :    448.85s CPU    227.71s WALL (    2146 calls)

     Called by *egterg:
     cdiaghg      :      3.92s CPU      2.00s WALL (    9034 calls)
     h_psi        :    379.75s CPU    192.92s WALL (    9182 calls)
     s_psi        :     15.91s CPU      7.99s WALL (    9182 calls)
     g_psi        :      2.82s CPU      1.42s WALL (    6962 calls)

     Called by h_psi:
     h_psi:calbec :     14.06s CPU      7.07s WALL (    9182 calls)
     vloc_psi     :    339.36s CPU    172.60s WALL (    9182 calls)
     add_vuspsi   :     22.46s CPU     11.28s WALL (    9182 calls)

     General routines
     calbec       :     18.31s CPU      9.21s WALL (   11698 calls)
     fft          :      3.52s CPU      1.94s WALL (     401 calls)
     ffts         :      0.36s CPU      0.18s WALL (      58 calls)
     fftw         :    331.71s CPU    169.01s WALL (  183082 calls)
     interpolate  :      0.68s CPU      0.39s WALL (      29 calls)
 
     Parallel routines
 
     PWSCF        :  10m43.82s CPU   5m32.66s WALL

 
   This run was terminated on:  12:56:24   6Apr2022            

=------------------------------------------------------------------------------=
   JOB DONE.
=------------------------------------------------------------------------------=
