
     Program PWSCF v.6.8 starts on  6Apr2022 at 12: 0:42 

     This program is part of the open-source Quantum ESPRESSO suite
     for quantum simulation of materials; please cite
         "P. Giannozzi et al., J. Phys.:Condens. Matter 21 395502 (2009);
         "P. Giannozzi et al., J. Phys.:Condens. Matter 29 465901 (2017);
         "P. Giannozzi et al., J. Chem. Phys. 152 154105 (2020);
          URL http://www.quantum-espresso.org", 
     in publications or presentations arising from this work. More details at
     http://www.quantum-espresso.org/quote

     Parallel version (MPI & OpenMP), running on       4 processor cores
     Number of MPI processes:                 2
     Threads/MPI process:                     2

     MPI processes distributed on     1 nodes
     R & G space division:  proc/nbgrp/npool/nimage =       2
     125202 MiB available memory on the printing compute node when the environment starts
 
     Reading input from MoS2.scf.95.in

     Current dimensions of program PWSCF are:
     Max number of different atomic species (ntypx) = 10
     Max number of k-points (npk) =  40000
     Max angular momentum in pseudopotentials (lmaxx) =  4
     file Mo.pbesol-spn-kjpaw_psl.1.0.0.UPF: wavefunction(s)  4S 4D renormalized
     file S.pbesol-nl-kjpaw_psl.1.0.0.UPF: wavefunction(s)  3S renormalized

     Subspace diagonalization in iterative solution of the eigenvalue problem:
     a serial algorithm will be used

 
     Parallelization info
     --------------------
     sticks:   dense  smooth     PW     G-vecs:    dense   smooth      PW
     Min         579     462    141                80939    57894    9827
     Max         580     463    142                80950    57903    9844
     Sum        1159     925    283               161889   115797   19671
 
     Using Slab Decomposition
 


     bravais-lattice index     =            0
     lattice parameter (alat)  =       6.0720  a.u.
     unit-cell volume          =     924.7995 (a.u.)^3
     number of atoms/cell      =            3
     number of atomic types    =            2
     number of electrons       =        26.00
     number of Kohn-Sham states=           13
     kinetic-energy cutoff     =      95.0000  Ry
     charge density cutoff     =     475.0000  Ry
     scf convergence threshold =      1.0E-12
     mixing beta               =       0.7000
     number of iterations used =            8  plain     mixing
     Exchange-correlation= SLA  PW   PSX  PSC
                           (   1   4  10   8   0   0   0)

     celldm(1)=   6.072000  celldm(2)=   0.000000  celldm(3)=   0.000000
     celldm(4)=   0.000000  celldm(5)=   0.000000  celldm(6)=   0.000000

     crystal axes: (cart. coord. in units of alat)
               a(1) = (   0.976384  -0.000017   0.000000 )  
               a(2) = (  -0.487931   0.846187   0.000000 )  
               a(3) = (   0.000000   0.000000   5.000000 )  

     reciprocal axes: (cart. coord. in units 2 pi/alat)
               b(1) = (  1.024198  0.590577  0.000000 )  
               b(2) = (  0.000021  1.181785  0.000000 )  
               b(3) = (  0.000000  0.000000  0.200000 )  


     PseudoPot. # 1 for Mo read from file:
     /shared/home/as3359/pseudo/Mo.pbesol-spn-kjpaw_psl.1.0.0.UPF
     MD5 check sum: de57925cfc675213e43241dcc441eda8
     Pseudo is Projector augmented-wave + core cor, Zval = 14.0
     Generated using &quot;atomic&quot; code by A. Dal Corso  v.6.3
     Shape of augmentation charge: PSQ
     Using radial grid of 1229 points,  6 beta functions with: 
                l(1) =   0
                l(2) =   0
                l(3) =   1
                l(4) =   1
                l(5) =   2
                l(6) =   2
     Q(r) pseudized with 0 coefficients 


     PseudoPot. # 2 for S  read from file:
     /shared/home/as3359/pseudo/S.pbesol-nl-kjpaw_psl.1.0.0.UPF
     MD5 check sum: bf3db50ec3f960682bbc396f1aadd1dd
     Pseudo is Projector augmented-wave + core cor, Zval =  6.0
     Generated using &quot;atomic&quot; code by A. Dal Corso  v.6.3
     Shape of augmentation charge: PSQ
     Using radial grid of 1151 points,  4 beta functions with: 
                l(1) =   0
                l(2) =   0
                l(3) =   1
                l(4) =   1
     Q(r) pseudized with 0 coefficients 


     atomic species   valence    mass     pseudopotential
        Mo            14.00    95.94000     Mo( 1.00)
        S              6.00    32.06500     S ( 1.00)

     No symmetry found



   Cartesian axes

     site n.     atom                  positions (alat units)
         1           Mo  tau(   1) = (   0.0000000   0.0000000   1.6880765  )
         2           S   tau(   2) = (   0.4883508   0.2821722   2.1737857  )
         3           S   tau(   3) = (   0.4883508   0.2821722   1.2023670  )

     number of k points=    74
                       cart. coord. in units 2pi/alat
        k(    1) = (   0.0000000   0.0000000   0.0000000), wk =   0.0138889
        k(    2) = (   0.0000017   0.0984820   0.0000000), wk =   0.0277778
        k(    3) = (   0.0000035   0.1969641   0.0000000), wk =   0.0277778
        k(    4) = (   0.0000052   0.2954461   0.0000000), wk =   0.0277778
        k(    5) = (   0.0000070   0.3939282   0.0000000), wk =   0.0277778
        k(    6) = (   0.0000087   0.4924102   0.0000000), wk =   0.0277778
        k(    7) = (  -0.0000105  -0.5908923   0.0000000), wk =   0.0138889
        k(    8) = (   0.0853498   0.0492147   0.0000000), wk =   0.0277778
        k(    9) = (   0.0853516   0.1476968   0.0000000), wk =   0.0277778
        k(   10) = (   0.0853533   0.2461788   0.0000000), wk =   0.0277778
        k(   11) = (   0.0853550   0.3446609   0.0000000), wk =   0.0277778
        k(   12) = (   0.0853568   0.4431429   0.0000000), wk =   0.0277778
        k(   13) = (   0.0853585   0.5416249   0.0000000), wk =   0.0277778
        k(   14) = (   0.0853394  -0.5416775   0.0000000), wk =   0.0277778
        k(   15) = (   0.0853411  -0.4431955   0.0000000), wk =   0.0277778
        k(   16) = (   0.0853428  -0.3447135   0.0000000), wk =   0.0277778
        k(   17) = (   0.0853446  -0.2462314   0.0000000), wk =   0.0277778
        k(   18) = (   0.0853463  -0.1477494   0.0000000), wk =   0.0277778
        k(   19) = (   0.0853481  -0.0492673   0.0000000), wk =   0.0277778
        k(   20) = (   0.1706996   0.0984294   0.0000000), wk =   0.0277778
        k(   21) = (   0.1707014   0.1969115   0.0000000), wk =   0.0277778
        k(   22) = (   0.1707031   0.2953935   0.0000000), wk =   0.0277778
        k(   23) = (   0.1707049   0.3938756   0.0000000), wk =   0.0277778
        k(   24) = (   0.1707066   0.4923576   0.0000000), wk =   0.0277778
        k(   25) = (   0.1707083   0.5908397   0.0000000), wk =   0.0277778
        k(   26) = (   0.1706892  -0.4924628   0.0000000), wk =   0.0277778
        k(   27) = (   0.1706909  -0.3939808   0.0000000), wk =   0.0277778
        k(   28) = (   0.1706927  -0.2954987   0.0000000), wk =   0.0277778
        k(   29) = (   0.1706944  -0.1970167   0.0000000), wk =   0.0277778
        k(   30) = (   0.1706961  -0.0985346   0.0000000), wk =   0.0277778
        k(   31) = (   0.1706979  -0.0000526   0.0000000), wk =   0.0277778
        k(   32) = (   0.2560494   0.1476442   0.0000000), wk =   0.0277778
        k(   33) = (   0.2560512   0.2461262   0.0000000), wk =   0.0277778
        k(   34) = (   0.2560529   0.3446082   0.0000000), wk =   0.0277778
        k(   35) = (   0.2560547   0.4430903   0.0000000), wk =   0.0277778
        k(   36) = (   0.2560564   0.5415723   0.0000000), wk =   0.0277778
        k(   37) = (   0.2560582   0.6400544   0.0000000), wk =   0.0277778
        k(   38) = (   0.2560390  -0.4432481   0.0000000), wk =   0.0277778
        k(   39) = (   0.2560407  -0.3447661   0.0000000), wk =   0.0277778
        k(   40) = (   0.2560425  -0.2462840   0.0000000), wk =   0.0277778
        k(   41) = (   0.2560442  -0.1478020   0.0000000), wk =   0.0277778
        k(   42) = (   0.2560460  -0.0493199   0.0000000), wk =   0.0277778
        k(   43) = (   0.2560477   0.0491621   0.0000000), wk =   0.0277778
        k(   44) = (   0.3413993   0.1968589   0.0000000), wk =   0.0277778
        k(   45) = (   0.3414010   0.2953409   0.0000000), wk =   0.0277778
        k(   46) = (   0.3414027   0.3938230   0.0000000), wk =   0.0277778
        k(   47) = (   0.3414045   0.4923050   0.0000000), wk =   0.0277778
        k(   48) = (   0.3414062   0.5907871   0.0000000), wk =   0.0277778
        k(   49) = (   0.3414080   0.6892691   0.0000000), wk =   0.0277778
        k(   50) = (   0.3413888  -0.3940334   0.0000000), wk =   0.0277778
        k(   51) = (   0.3413905  -0.2955513   0.0000000), wk =   0.0277778
        k(   52) = (   0.3413923  -0.1970693   0.0000000), wk =   0.0277778
        k(   53) = (   0.3413940  -0.0985872   0.0000000), wk =   0.0277778
        k(   54) = (   0.3413958  -0.0001052   0.0000000), wk =   0.0277778
        k(   55) = (   0.3413975   0.0983768   0.0000000), wk =   0.0277778
        k(   56) = (   0.4267491   0.2460736   0.0000000), wk =   0.0277778
        k(   57) = (   0.4267508   0.3445556   0.0000000), wk =   0.0277778
        k(   58) = (   0.4267526   0.4430377   0.0000000), wk =   0.0277778
        k(   59) = (   0.4267543   0.5415197   0.0000000), wk =   0.0277778
        k(   60) = (   0.4267560   0.6400018   0.0000000), wk =   0.0277778
        k(   61) = (   0.4267578   0.7384838   0.0000000), wk =   0.0277778
        k(   62) = (   0.4267386  -0.3448187   0.0000000), wk =   0.0277778
        k(   63) = (   0.4267404  -0.2463366   0.0000000), wk =   0.0277778
        k(   64) = (   0.4267421  -0.1478546   0.0000000), wk =   0.0277778
        k(   65) = (   0.4267438  -0.0493725   0.0000000), wk =   0.0277778
        k(   66) = (   0.4267456   0.0491095   0.0000000), wk =   0.0277778
        k(   67) = (   0.4267473   0.1475916   0.0000000), wk =   0.0277778
        k(   68) = (  -0.5120989  -0.2952883   0.0000000), wk =   0.0138889
        k(   69) = (  -0.5120971  -0.1968063   0.0000000), wk =   0.0277778
        k(   70) = (  -0.5120954  -0.0983242   0.0000000), wk =   0.0277778
        k(   71) = (  -0.5120937   0.0001578   0.0000000), wk =   0.0277778
        k(   72) = (  -0.5120919   0.0986398   0.0000000), wk =   0.0277778
        k(   73) = (  -0.5120902   0.1971219   0.0000000), wk =   0.0277778
        k(   74) = (  -0.5121093  -0.8861806   0.0000000), wk =   0.0138889

     Dense  grid:   161889 G-vectors     FFT dimensions: (  45,  45, 216)

     Smooth grid:   115797 G-vectors     FFT dimensions: (  40,  40, 192)

     Estimated max dynamical RAM per process >     414.02 MB

     Estimated total dynamical RAM >     828.04 MB

     Initial potential from superposition of free atoms

     starting charge   25.99914, renormalised to   26.00000

     negative rho (up, down):  1.767E-04 0.000E+00
     Starting wfcs are   18 randomized atomic wfcs
     Checking if some PAW data can be deallocated... 

     total cpu time spent up to now is        4.8 secs

     Self-consistent Calculation

     iteration #  1     ecut=    95.00 Ry     beta= 0.70
     Davidson diagonalization with overlap
     ethr =  1.00E-02,  avg # of iterations =  2.0

     Threshold (ethr) on eigenvalues was too large:
     Diagonalizing with lowered threshold

     Davidson diagonalization with overlap
     ethr =  3.45E-04,  avg # of iterations =  3.9

     negative rho (up, down):  2.071E-04 0.000E+00

     total cpu time spent up to now is       15.6 secs

     total energy              =    -489.69357608 Ry
     estimated scf accuracy    <       0.14258424 Ry

     iteration #  2     ecut=    95.00 Ry     beta= 0.70
     Davidson diagonalization with overlap
     ethr =  5.48E-04,  avg # of iterations =  5.2

     negative rho (up, down):  1.935E-04 0.000E+00

     total cpu time spent up to now is       22.8 secs

     total energy              =    -489.64940792 Ry
     estimated scf accuracy    <       0.56206024 Ry

     iteration #  3     ecut=    95.00 Ry     beta= 0.70
     Davidson diagonalization with overlap
     ethr =  5.48E-04,  avg # of iterations =  5.2

     negative rho (up, down):  1.954E-04 0.000E+00

     total cpu time spent up to now is       29.6 secs

     total energy              =    -489.75294596 Ry
     estimated scf accuracy    <       0.03210467 Ry

     iteration #  4     ecut=    95.00 Ry     beta= 0.70
     Davidson diagonalization with overlap
     ethr =  1.23E-04,  avg # of iterations =  2.5

     negative rho (up, down):  2.050E-04 0.000E+00

     total cpu time spent up to now is       34.7 secs

     total energy              =    -489.75508661 Ry
     estimated scf accuracy    <       0.00464567 Ry

     iteration #  5     ecut=    95.00 Ry     beta= 0.70
     Davidson diagonalization with overlap
     ethr =  1.79E-05,  avg # of iterations =  4.9

     negative rho (up, down):  2.059E-04 0.000E+00

     total cpu time spent up to now is       41.3 secs

     total energy              =    -489.75778636 Ry
     estimated scf accuracy    <       0.00435902 Ry

     iteration #  6     ecut=    95.00 Ry     beta= 0.70
     Davidson diagonalization with overlap
     ethr =  1.68E-05,  avg # of iterations =  1.0

     negative rho (up, down):  2.079E-04 0.000E+00

     total cpu time spent up to now is       45.6 secs

     total energy              =    -489.75707312 Ry
     estimated scf accuracy    <       0.00308620 Ry

     iteration #  7     ecut=    95.00 Ry     beta= 0.70
     Davidson diagonalization with overlap
     ethr =  1.19E-05,  avg # of iterations =  2.7

     negative rho (up, down):  2.094E-04 0.000E+00

     total cpu time spent up to now is       50.7 secs

     total energy              =    -489.75732711 Ry
     estimated scf accuracy    <       0.00040310 Ry

     iteration #  8     ecut=    95.00 Ry     beta= 0.70
     Davidson diagonalization with overlap
     ethr =  1.55E-06,  avg # of iterations =  4.6

     negative rho (up, down):  2.118E-04 0.000E+00

     total cpu time spent up to now is       56.7 secs

     total energy              =    -489.75743940 Ry
     estimated scf accuracy    <       0.00001674 Ry

     iteration #  9     ecut=    95.00 Ry     beta= 0.70
     Davidson diagonalization with overlap
     ethr =  6.44E-08,  avg # of iterations =  5.8

     negative rho (up, down):  2.119E-04 0.000E+00

     total cpu time spent up to now is       64.5 secs

     total energy              =    -489.75744999 Ry
     estimated scf accuracy    <       0.00009936 Ry

     iteration # 10     ecut=    95.00 Ry     beta= 0.70
     Davidson diagonalization with overlap
     ethr =  6.44E-08,  avg # of iterations =  4.1

     negative rho (up, down):  2.118E-04 0.000E+00

     total cpu time spent up to now is       70.3 secs

     total energy              =    -489.75743051 Ry
     estimated scf accuracy    <       0.00007718 Ry

     iteration # 11     ecut=    95.00 Ry     beta= 0.70
     Davidson diagonalization with overlap
     ethr =  6.44E-08,  avg # of iterations =  4.9

     negative rho (up, down):  2.120E-04 0.000E+00

     total cpu time spent up to now is       77.1 secs

     total energy              =    -489.75744216 Ry
     estimated scf accuracy    <       0.00001396 Ry

     iteration # 12     ecut=    95.00 Ry     beta= 0.70
     Davidson diagonalization with overlap
     ethr =  5.37E-08,  avg # of iterations =  2.6

     negative rho (up, down):  2.119E-04 0.000E+00

     total cpu time spent up to now is       82.4 secs

     total energy              =    -489.75744322 Ry
     estimated scf accuracy    <       0.00000224 Ry

     iteration # 13     ecut=    95.00 Ry     beta= 0.70
     Davidson diagonalization with overlap
     ethr =  8.61E-09,  avg # of iterations =  4.6

     negative rho (up, down):  2.120E-04 0.000E+00

     total cpu time spent up to now is       88.8 secs

     total energy              =    -489.75744395 Ry
     estimated scf accuracy    <       0.00000053 Ry

     iteration # 14     ecut=    95.00 Ry     beta= 0.70
     Davidson diagonalization with overlap
     ethr =  2.05E-09,  avg # of iterations =  1.8

     negative rho (up, down):  2.120E-04 0.000E+00

     total cpu time spent up to now is       93.5 secs

     total energy              =    -489.75744391 Ry
     estimated scf accuracy    <       0.00000030 Ry

     iteration # 15     ecut=    95.00 Ry     beta= 0.70
     Davidson diagonalization with overlap
     ethr =  1.15E-09,  avg # of iterations =  2.9

     negative rho (up, down):  2.120E-04 0.000E+00

     total cpu time spent up to now is       98.7 secs

     total energy              =    -489.75744394 Ry
     estimated scf accuracy    <       0.00000003 Ry

     iteration # 16     ecut=    95.00 Ry     beta= 0.70
     Davidson diagonalization with overlap
     ethr =  9.97E-11,  avg # of iterations =  5.5

     negative rho (up, down):  2.120E-04 0.000E+00

     total cpu time spent up to now is      105.5 secs

     total energy              =    -489.75744395 Ry
     estimated scf accuracy    <       0.00000003 Ry

     iteration # 17     ecut=    95.00 Ry     beta= 0.70
     Davidson diagonalization with overlap
     ethr =  9.97E-11,  avg # of iterations =  2.8

     negative rho (up, down):  2.120E-04 0.000E+00

     total cpu time spent up to now is      110.7 secs

     total energy              =    -489.75744395 Ry
     estimated scf accuracy    <          6.4E-09 Ry

     iteration # 18     ecut=    95.00 Ry     beta= 0.70
     Davidson diagonalization with overlap
     ethr =  2.47E-11,  avg # of iterations =  4.5

     negative rho (up, down):  2.120E-04 0.000E+00

     total cpu time spent up to now is      116.7 secs

     total energy              =    -489.75744395 Ry
     estimated scf accuracy    <          6.1E-09 Ry

     iteration # 19     ecut=    95.00 Ry     beta= 0.70
     Davidson diagonalization with overlap
     ethr =  2.36E-11,  avg # of iterations =  1.5

     negative rho (up, down):  2.120E-04 0.000E+00

     total cpu time spent up to now is      121.2 secs

     total energy              =    -489.75744395 Ry
     estimated scf accuracy    <          2.4E-09 Ry

     iteration # 20     ecut=    95.00 Ry     beta= 0.70
     Davidson diagonalization with overlap
     ethr =  9.20E-12,  avg # of iterations =  2.6

     negative rho (up, down):  2.120E-04 0.000E+00

     total cpu time spent up to now is      126.1 secs

     total energy              =    -489.75744395 Ry
     estimated scf accuracy    <          8.8E-10 Ry

     iteration # 21     ecut=    95.00 Ry     beta= 0.70
     Davidson diagonalization with overlap
     ethr =  3.37E-12,  avg # of iterations =  3.6

     negative rho (up, down):  2.120E-04 0.000E+00

     total cpu time spent up to now is      131.4 secs

     total energy              =    -489.75744395 Ry
     estimated scf accuracy    <          2.8E-10 Ry

     iteration # 22     ecut=    95.00 Ry     beta= 0.70
     Davidson diagonalization with overlap
     ethr =  1.10E-12,  avg # of iterations =  2.9

     negative rho (up, down):  2.120E-04 0.000E+00

     total cpu time spent up to now is      136.5 secs

     total energy              =    -489.75744395 Ry
     estimated scf accuracy    <          1.3E-10 Ry

     iteration # 23     ecut=    95.00 Ry     beta= 0.70
     Davidson diagonalization with overlap
     ethr =  5.17E-13,  avg # of iterations =  1.9

     negative rho (up, down):  2.120E-04 0.000E+00

     total cpu time spent up to now is      141.0 secs

     total energy              =    -489.75744395 Ry
     estimated scf accuracy    <          7.0E-11 Ry

     iteration # 24     ecut=    95.00 Ry     beta= 0.70
     Davidson diagonalization with overlap
     ethr =  2.70E-13,  avg # of iterations =  4.4

     negative rho (up, down):  2.120E-04 0.000E+00

     total cpu time spent up to now is      147.2 secs

     total energy              =    -489.75744395 Ry
     estimated scf accuracy    <          8.8E-12 Ry

     iteration # 25     ecut=    95.00 Ry     beta= 0.70
     Davidson diagonalization with overlap
     ethr =  1.00E-13,  avg # of iterations =  1.3

     negative rho (up, down):  2.120E-04 0.000E+00

     total cpu time spent up to now is      151.5 secs

     total energy              =    -489.75744395 Ry
     estimated scf accuracy    <          1.0E-11 Ry

     iteration # 26     ecut=    95.00 Ry     beta= 0.70
     Davidson diagonalization with overlap
     ethr =  1.00E-13,  avg # of iterations =  1.1

     negative rho (up, down):  2.120E-04 0.000E+00

     total cpu time spent up to now is      155.8 secs

     total energy              =    -489.75744395 Ry
     estimated scf accuracy    <          4.8E-12 Ry

     iteration # 27     ecut=    95.00 Ry     beta= 0.70
     Davidson diagonalization with overlap
     ethr =  1.00E-13,  avg # of iterations =  1.0

     negative rho (up, down):  2.120E-04 0.000E+00

     total cpu time spent up to now is      160.2 secs

     total energy              =    -489.75744395 Ry
     estimated scf accuracy    <          1.4E-12 Ry

     iteration # 28     ecut=    95.00 Ry     beta= 0.70
     Davidson diagonalization with overlap
     ethr =  1.00E-13,  avg # of iterations =  1.0

     negative rho (up, down):  2.120E-04 0.000E+00

     total cpu time spent up to now is      164.5 secs

     End of self-consistent calculation

          k = 0.0000 0.0000 0.0000 ( 14453 PWs)   bands (ev):

   -60.3472 -34.5537 -34.2860 -34.2847 -13.8553 -12.5037  -5.4144  -2.2347
    -2.2260  -1.4940  -1.0737  -1.0673   0.2788

          k = 0.0000 0.0985 0.0000 ( 14444 PWs)   bands (ev):

   -60.3441 -34.5478 -34.3160 -34.2914 -13.7455 -12.4584  -5.2905  -2.4748
    -2.1116  -1.9585  -1.2407  -0.7778   0.2365

          k = 0.0000 0.1970 0.0000 ( 14446 PWs)   bands (ev):

   -60.3358 -34.5315 -34.3973 -34.3099 -13.4327 -12.3295  -4.9798  -3.0231
    -2.6263  -1.7912  -1.6472  -0.7041   0.0213

          k = 0.0000 0.2954 0.0000 ( 14450 PWs)   bands (ev):

   -60.3244 -34.5092 -34.5067 -34.3349 -12.9680 -12.1395  -4.7598  -3.4846
    -3.3110  -2.1007  -1.3427  -0.9773  -0.4116

          k = 0.0000 0.3939 0.0000 ( 14474 PWs)   bands (ev):

   -60.3130 -34.6143 -34.4868 -34.3598 -12.4428 -11.9296  -5.0169  -3.9459
    -3.5889  -2.4812  -1.3009  -0.8971  -0.6653

          k = 0.0000 0.4924 0.0000 ( 14484 PWs)   bands (ev):

   -60.3046 -34.6920 -34.4704 -34.3780 -12.0009 -11.7599  -5.4148  -4.4118
    -3.7138  -2.7278  -1.5048  -0.5934  -0.4741

          k =-0.0000-0.5909 0.0000 ( 14490 PWs)   bands (ev):

   -60.3015 -34.7202 -34.4644 -34.3846 -11.8220 -11.6936  -5.5872  -4.5847
    -3.8032  -2.8127  -1.5700  -0.4920  -0.2951

          k = 0.0853 0.0492 0.0000 ( 14442 PWs)   bands (ev):

   -60.3441 -34.5478 -34.3152 -34.2922 -13.7454 -12.4583  -5.2905  -2.4713
    -2.1155  -1.9563  -1.2461  -0.7750   0.2369

          k = 0.0854 0.1477 0.0000 ( 14417 PWs)   bands (ev):

   -60.3384 -34.5367 -34.3698 -34.3058 -13.5340 -12.3710  -5.0693  -2.8611
    -2.4005  -1.9034  -1.6501  -0.5823   0.1085

          k = 0.0854 0.2462 0.0000 ( 14433 PWs)   bands (ev):

   -60.3286 -34.5174 -34.4613 -34.3314 -13.1443 -12.2104  -4.7709  -3.3490
    -2.9636  -2.2309  -1.5739  -0.6200  -0.2247

          k = 0.0854 0.3447 0.0000 ( 14474 PWs)   bands (ev):

   -60.3171 -34.5652 -34.4950 -34.3610 -12.6454 -12.0069  -4.7991  -3.6379
    -3.5308  -2.6169  -1.3412  -0.9379  -0.5032

          k = 0.0854 0.4431 0.0000 ( 14476 PWs)   bands (ev):

   -60.3072 -34.6538 -34.4756 -34.3866 -12.1524 -11.8108  -5.1610  -4.2548
    -3.5841  -2.7874  -1.2951  -1.2410  -0.3611

          k = 0.0854 0.5416 0.0000 ( 14482 PWs)   bands (ev):

   -60.3015 -34.7044 -34.4644 -34.4013 -11.8301 -11.6869  -5.4418  -4.6161
    -3.7355  -2.8384  -1.5176  -1.0960  -0.1136

          k = 0.0853-0.5417 0.0000 ( 14480 PWs)   bands (ev):

   -60.3015 -34.7045 -34.4644 -34.4013 -11.8300 -11.6868  -5.4420  -4.6160
    -3.7356  -2.8390  -1.5171  -1.0951  -0.1147

          k = 0.0853-0.4432 0.0000 ( 14478 PWs)   bands (ev):

   -60.3072 -34.6539 -34.4756 -34.3866 -12.1521 -11.8107  -5.1615  -4.2546
    -3.5842  -2.7886  -1.2940  -1.2389  -0.3634

          k = 0.0853-0.3447 0.0000 ( 14472 PWs)   bands (ev):

   -60.3171 -34.5653 -34.4950 -34.3611 -12.6450 -12.0068  -4.7992  -3.6380
    -3.5309  -2.6175  -1.3394  -0.9370  -0.5055

          k = 0.0853-0.2462 0.0000 ( 14433 PWs)   bands (ev):

   -60.3285 -34.5174 -34.4614 -34.3315 -13.1440 -12.2103  -4.7707  -3.3485
    -2.9645  -2.2303  -1.5744  -0.6197  -0.2256

          k = 0.0853-0.1477 0.0000 ( 14419 PWs)   bands (ev):

   -60.3384 -34.5366 -34.3697 -34.3061 -13.5338 -12.3709  -5.0690  -2.8590
    -2.4015  -1.9061  -1.6490  -0.5823   0.1084

          k = 0.0853-0.0493 0.0000 ( 14444 PWs)   bands (ev):

   -60.3441 -34.5478 -34.3149 -34.2926 -13.7453 -12.4582  -5.2904  -2.4682
    -2.1189  -1.9567  -1.2457  -0.7750   0.2369

          k = 0.1707 0.0984 0.0000 ( 14442 PWs)   bands (ev):

   -60.3358 -34.5315 -34.3966 -34.3107 -13.4324 -12.3289  -4.9797  -3.0205
    -2.6235  -1.7950  -1.6530  -0.7027   0.0230

          k = 0.1707 0.1969 0.0000 ( 14430 PWs)   bands (ev):

   -60.3285 -34.5174 -34.4610 -34.3319 -13.1441 -12.2100  -4.7709  -3.3476
    -2.9613  -2.2346  -1.5759  -0.6200  -0.2235

          k = 0.1707 0.2954 0.0000 ( 14453 PWs)   bands (ev):

   -60.3186 -34.5398 -34.4980 -34.3691 -12.7173 -12.0331  -4.6897  -3.4872
    -3.3883  -2.8935  -1.5787  -0.6548  -0.4348

          k = 0.1707 0.3939 0.0000 ( 14452 PWs)   bands (ev):

   -60.3087 -34.6137 -34.4786 -34.4103 -12.2401 -11.8353  -4.8886  -4.1147
    -3.3894  -3.0081  -1.8998  -0.9774  -0.3639

          k = 0.1707 0.4924 0.0000 ( 14474 PWs)   bands (ev):

   -60.3015 -34.6660 -34.4644 -34.4417 -11.8460 -11.6732  -5.1014  -4.6739
    -3.5277  -2.9128  -2.0141  -1.3742  -0.1095

          k = 0.1707 0.5908 0.0000 ( 14446 PWs)   bands (ev):

   -60.2988 -34.6849 -34.4591 -34.4533 -11.6891 -11.6092  -5.1814  -4.8777
    -3.6694  -2.8313  -1.9985  -1.5664   0.0714

          k = 0.1707-0.4925 0.0000 ( 14472 PWs)   bands (ev):

   -60.3014 -34.6662 -34.4644 -34.4417 -11.8455 -11.6730  -5.1021  -4.6738
    -3.5279  -2.9139  -2.0125  -1.3732  -0.1112

          k = 0.1707-0.3940 0.0000 ( 14453 PWs)   bands (ev):

   -60.3087 -34.6140 -34.4786 -34.4103 -12.2393 -11.8350  -4.8893  -4.1144
    -3.3895  -3.0094  -1.8978  -0.9763  -0.3662

          k = 0.1707-0.2955 0.0000 ( 14449 PWs)   bands (ev):

   -60.3186 -34.5400 -34.4980 -34.3693 -12.7165 -12.0328  -4.6898  -3.4865
    -3.3885  -2.8942  -1.5781  -0.6540  -0.4370

          k = 0.1707-0.1970 0.0000 ( 14427 PWs)   bands (ev):

   -60.3285 -34.5173 -34.4610 -34.3322 -13.1435 -12.2097  -4.7706  -3.3458
    -2.9620  -2.2347  -1.5781  -0.6194  -0.2242

          k = 0.1707-0.0985 0.0000 ( 14443 PWs)   bands (ev):

   -60.3357 -34.5314 -34.3964 -34.3111 -13.4320 -12.3288  -4.9794  -3.0181
    -2.6237  -1.7981  -1.6536  -0.7020   0.0231

          k = 0.1707-0.0001 0.0000 ( 14421 PWs)   bands (ev):

   -60.3384 -34.5366 -34.3691 -34.3068 -13.5335 -12.3705  -5.0688  -2.8571
    -2.3996  -1.9090  -1.6526  -0.5814   0.1094

          k = 0.2560 0.1476 0.0000 ( 14448 PWs)   bands (ev):

   -60.3243 -34.5091 -34.5062 -34.3359 -12.9673 -12.1383  -4.7598  -3.4823
    -3.3089  -2.1070  -1.3465  -0.9763  -0.4088

          k = 0.2561 0.2461 0.0000 ( 14470 PWs)   bands (ev):

   -60.3171 -34.5648 -34.4950 -34.3618 -12.6449 -12.0058  -4.7990  -3.6362
    -3.5287  -2.6216  -1.3439  -0.9377  -0.5017

          k = 0.2561 0.3446 0.0000 ( 14454 PWs)   bands (ev):

   -60.3087 -34.6135 -34.4786 -34.4107 -12.2397 -11.8346  -4.8883  -4.1145
    -3.3884  -3.0099  -1.9012  -0.9773  -0.3635

          k = 0.2561 0.4431 0.0000 ( 14457 PWs)   bands (ev):

   -60.3014 -34.6401 -34.4687 -34.4644 -11.8536 -11.6658  -4.8958  -4.7010
    -3.2619  -2.9582  -2.6207  -1.2852  -0.1376

          k = 0.2561 0.5416 0.0000 ( 14438 PWs)   bands (ev):

   -60.2972 -34.6457 -34.5119 -34.4561 -11.6123 -11.5571  -5.0669  -4.7709
    -3.5328  -2.8884  -2.7488  -1.6398   0.1796

          k = 0.2561 0.6401 0.0000 ( 14440 PWs)   bands (ev):

   -60.2972 -34.6458 -34.5118 -34.4561 -11.6119 -11.5569  -5.0669  -4.7715
    -3.5331  -2.8874  -2.7494  -1.6393   0.1789

          k = 0.2560-0.4432 0.0000 ( 14461 PWs)   bands (ev):

   -60.3014 -34.6404 -34.4687 -34.4643 -11.8527 -11.6654  -4.8968  -4.7009
    -3.2623  -2.9595  -2.6189  -1.2845  -0.1392

          k = 0.2560-0.3448 0.0000 ( 14453 PWs)   bands (ev):

   -60.3086 -34.6137 -34.4785 -34.4109 -12.2386 -11.8341  -4.8889  -4.1143
    -3.3871  -3.0115  -1.9009  -0.9766  -0.3656

          k = 0.2560-0.2463 0.0000 ( 14474 PWs)   bands (ev):

   -60.3170 -34.5649 -34.4949 -34.3622 -12.6439 -12.0054  -4.7990  -3.6360
    -3.5268  -2.6233  -1.3447  -0.9371  -0.5037

          k = 0.2560-0.1478 0.0000 ( 14450 PWs)   bands (ev):

   -60.3243 -34.5091 -34.5061 -34.3363 -12.9667 -12.1380  -4.7595  -3.4801
    -3.3088  -2.1085  -1.3494  -0.9757  -0.4089

          k = 0.2560-0.0493 0.0000 ( 14432 PWs)   bands (ev):

   -60.3285 -34.5173 -34.4609 -34.3326 -13.1431 -12.2092  -4.7704  -3.3462
    -2.9623  -2.2354  -1.5785  -0.6193  -0.2235

          k = 0.2560 0.0492 0.0000 ( 14434 PWs)   bands (ev):

   -60.3285 -34.5173 -34.4610 -34.3323 -13.1433 -12.2093  -4.7705  -3.3474
    -2.9625  -2.2347  -1.5768  -0.6195  -0.2237

          k = 0.3414 0.1969 0.0000 ( 14467 PWs)   bands (ev):

   -60.3129 -34.6140 -34.4867 -34.3609 -12.4418 -11.9276  -5.0167  -3.9454
    -3.5870  -2.4879  -1.2993  -0.9016  -0.6620

          k = 0.3414 0.2953 0.0000 ( 14482 PWs)   bands (ev):

   -60.3071 -34.6535 -34.4755 -34.3876 -12.1515 -11.8088  -5.1602  -4.2550
    -3.5829  -2.7925  -1.2939  -1.2433  -0.3603

          k = 0.3414 0.3938 0.0000 ( 14474 PWs)   bands (ev):

   -60.3014 -34.6657 -34.4643 -34.4424 -11.8453 -11.6716  -5.1005  -4.6750
    -3.5272  -2.9154  -2.0166  -1.3731  -0.1083

          k = 0.3414 0.4923 0.0000 ( 14442 PWs)   bands (ev):

   -60.2972 -34.6455 -34.5123 -34.4561 -11.6119 -11.5562  -5.0678  -4.7704
    -3.5323  -2.8900  -2.7500  -1.6388   0.1802

          k = 0.3414 0.5908 0.0000 ( 14429 PWs)   bands (ev):

   -60.2956 -34.6131 -34.5630 -34.4531 -11.5245 -11.5101  -5.2236  -4.3605
    -3.8340  -3.2104  -2.5874  -1.8346   0.3754

          k = 0.3414 0.6893 0.0000 ( 14444 PWs)   bands (ev):

   -60.2971 -34.6456 -34.5124 -34.4560 -11.6110 -11.5559  -5.0678  -4.7711
    -3.5319  -2.8900  -2.7508  -1.6387   0.1796

          k = 0.3414-0.3940 0.0000 ( 14476 PWs)   bands (ev):

   -60.3013 -34.6659 -34.4642 -34.4427 -11.8440 -11.6711  -5.1010  -4.6750
    -3.5260  -2.9170  -2.0171  -1.3728  -0.1095

          k = 0.3414-0.2956 0.0000 ( 14486 PWs)   bands (ev):

   -60.3071 -34.6536 -34.4754 -34.3881 -12.1501 -11.8083  -5.1604  -4.2546
    -3.5812  -2.7948  -1.2935  -1.2440  -0.3622

          k = 0.3414-0.1971 0.0000 ( 14470 PWs)   bands (ev):

   -60.3128 -34.6140 -34.4866 -34.3614 -12.4406 -11.9271  -5.0165  -3.9450
    -3.5849  -2.4900  -1.2989  -0.9043  -0.6622

          k = 0.3414-0.0986 0.0000 ( 14470 PWs)   bands (ev):

   -60.3170 -34.5649 -34.4949 -34.3624 -12.6434 -12.0048  -4.7994  -3.6373
    -3.5275  -2.6229  -1.3430  -0.9369  -0.5047

          k = 0.3414-0.0001 0.0000 ( 14451 PWs)   bands (ev):

   -60.3186 -34.5399 -34.4979 -34.3698 -12.7157 -12.0316  -4.6902  -3.4870
    -3.3899  -2.8950  -1.5767  -0.6539  -0.4377

          k = 0.3414 0.0984 0.0000 ( 14468 PWs)   bands (ev):

   -60.3170 -34.5650 -34.4949 -34.3620 -12.6440 -12.0051  -4.7996  -3.6376
    -3.5295  -2.6219  -1.3404  -0.9366  -0.5051

          k = 0.4267 0.2461 0.0000 ( 14484 PWs)   bands (ev):

   -60.3045 -34.6918 -34.4703 -34.3791 -11.9996 -11.7571  -5.4138  -4.4129
    -3.7132  -2.7347  -1.5021  -0.5987  -0.4704

          k = 0.4268 0.3446 0.0000 ( 14482 PWs)   bands (ev):

   -60.3014 -34.7042 -34.4642 -34.4024 -11.8288 -11.6842  -5.4405  -4.6177
    -3.7355  -2.8440  -1.5152  -1.0990  -0.1122

          k = 0.4268 0.4430 0.0000 ( 14449 PWs)   bands (ev):

   -60.2987 -34.6846 -34.4590 -34.4542 -11.6880 -11.6071  -5.1807  -4.8797
    -3.6693  -2.8348  -2.0009  -1.5642   0.0724

          k = 0.4268 0.5415 0.0000 ( 14442 PWs)   bands (ev):

   -60.2971 -34.6457 -34.5124 -34.4560 -11.6111 -11.5555  -5.0686  -4.7722
    -3.5322  -2.8884  -2.7511  -1.6378   0.1782

          k = 0.4268 0.6400 0.0000 ( 14446 PWs)   bands (ev):

   -60.2971 -34.6457 -34.5125 -34.4560 -11.6106 -11.5554  -5.0687  -4.7723
    -3.5313  -2.8895  -2.7513  -1.6381   0.1784

          k = 0.4268 0.7385 0.0000 ( 14448 PWs)   bands (ev):

   -60.2986 -34.6847 -34.4590 -34.4545 -11.6868 -11.6066  -5.1808  -4.8798
    -3.6684  -2.8358  -2.0024  -1.5645   0.0725

          k = 0.4267-0.3448 0.0000 ( 14485 PWs)   bands (ev):

   -60.3013 -34.7043 -34.4641 -34.4029 -11.8273 -11.6836  -5.4405  -4.6175
    -3.7343  -2.8463  -1.5151  -1.1005  -0.1129

          k = 0.4267-0.2463 0.0000 ( 14478 PWs)   bands (ev):

   -60.3044 -34.6918 -34.4701 -34.3797 -11.9981 -11.7565  -5.4137  -4.4125
    -3.7116  -2.7373  -1.5020  -0.6016  -0.4701

          k = 0.4267-0.1479 0.0000 ( 14482 PWs)   bands (ev):

   -60.3071 -34.6537 -34.4754 -34.3881 -12.1497 -11.8078  -5.1613  -4.2556
    -3.5812  -2.7947  -1.2930  -1.2425  -0.3639

          k = 0.4267-0.0494 0.0000 ( 14453 PWs)   bands (ev):

   -60.3086 -34.6139 -34.4784 -34.4112 -12.2377 -11.8330  -4.8904  -4.1164
    -3.3877  -3.0114  -1.8981  -0.9761  -0.3679

          k = 0.4267 0.0491 0.0000 ( 14447 PWs)   bands (ev):

   -60.3086 -34.6139 -34.4785 -34.4110 -12.2381 -11.8332  -4.8905  -4.1164
    -3.3891  -3.0111  -1.8964  -0.9757  -0.3681

          k = 0.4267 0.1476 0.0000 ( 14484 PWs)   bands (ev):

   -60.3071 -34.6537 -34.4755 -34.3876 -12.1507 -11.8082  -5.1616  -4.2558
    -3.5831  -2.7935  -1.2925  -1.2397  -0.3642

          k =-0.5121-0.2953 0.0000 ( 14490 PWs)   bands (ev):

   -60.3014 -34.7200 -34.4642 -34.3858 -11.8205 -11.6906  -5.5860  -4.5864
    -3.8032  -2.8197  -1.5669  -0.4978  -0.2912

          k =-0.5121-0.1968 0.0000 ( 14485 PWs)   bands (ev):

   -60.3014 -34.7043 -34.4642 -34.4024 -11.8285 -11.6840  -5.4412  -4.6180
    -3.7354  -2.8446  -1.5145  -1.0976  -0.1142

          k =-0.5121-0.0983 0.0000 ( 14466 PWs)   bands (ev):

   -60.3014 -34.6660 -34.4642 -34.4424 -11.8442 -11.6707  -5.1027  -4.6761
    -3.5272  -2.9168  -2.0135  -1.3716  -0.1121

          k =-0.5121 0.0002 0.0000 ( 14455 PWs)   bands (ev):

   -60.3013 -34.6405 -34.4690 -34.4642 -11.8517 -11.6640  -4.8986  -4.7030
    -3.2624  -2.9604  -2.6171  -1.2836  -0.1414

          k =-0.5121 0.0986 0.0000 ( 14466 PWs)   bands (ev):

   -60.3013 -34.6660 -34.4642 -34.4428 -11.8434 -11.6704  -5.1025  -4.6762
    -3.5258  -2.9172  -2.0157  -1.3722  -0.1116

          k =-0.5121 0.1971 0.0000 ( 14485 PWs)   bands (ev):

   -60.3013 -34.7044 -34.4641 -34.4029 -11.8271 -11.6834  -5.4410  -4.6179
    -3.7342  -2.8464  -1.5148  -1.0999  -0.1138

          k =-0.5121-0.8862 0.0000 ( 14490 PWs)   bands (ev):

   -60.3013 -34.7201 -34.4641 -34.3863 -11.8189 -11.6899  -5.5858  -4.5861
    -3.8021  -2.8224  -1.5668  -0.5008  -0.2905

     highest occupied level (ev):     0.3754

!    total energy              =    -489.75744395 Ry

     total all-electron energy =     -9688.215289 Ry
     estimated scf accuracy    <          7.0E-13 Ry

     The total energy is the sum of the following terms:
     one-electron contribution =    -813.90507432 Ry
     hartree contribution      =     410.77368428 Ry
     xc contribution           =     -29.52477367 Ry
     ewald contribution        =     255.78841210 Ry
     one-center paw contrib.   =    -312.88969234 Ry

     convergence has been achieved in  28 iterations

     negative rho (up, down):  2.120E-04 0.000E+00

     Forces acting on atoms (cartesian axes, Ry/au):

     atom    1 type  1   force =     0.00026898    0.00012876   -0.00000215
     atom    2 type  2   force =    -0.00013447   -0.00006438   -0.00031832
     atom    3 type  2   force =    -0.00013451   -0.00006438    0.00032047

     Total force =     0.000581     Total SCF correction =     0.000005


     Computing stress (Cartesian axis) and pressure


     negative rho (up, down):  2.120E-04 0.000E+00
          total   stress  (Ry/bohr**3)                   (kbar)     P=        0.43
   0.00000793  -0.00000085  -0.00000000            1.17       -0.13       -0.00
  -0.00000085   0.00000479   0.00000000           -0.13        0.70        0.00
  -0.00000000   0.00000000  -0.00000394           -0.00        0.00       -0.58


     Writing output data file /scratch/as3359/MoS2-CT/MoS2.save/
 
     init_run     :      8.36s CPU      4.65s WALL (       1 calls)
     electrons    :    310.35s CPU    159.72s WALL (       1 calls)
     forces       :      2.89s CPU      1.49s WALL (       1 calls)
     stress       :      8.23s CPU      4.21s WALL (       1 calls)

     Called by init_run:
     wfcinit      :      4.48s CPU      2.31s WALL (       1 calls)
     potinit      :      1.12s CPU      0.57s WALL (       1 calls)
     hinit0       :      2.40s CPU      1.55s WALL (       1 calls)

     Called by electrons:
     c_bands      :    244.98s CPU    124.58s WALL (      29 calls)
     sum_band     :     49.04s CPU     25.81s WALL (      29 calls)
     v_of_rho     :      3.64s CPU      1.93s WALL (      29 calls)
     newd         :      6.12s CPU      3.98s WALL (      29 calls)
     PAW_pot      :      5.39s CPU      2.80s WALL (      29 calls)
     mix_rho      :      1.11s CPU      0.59s WALL (      29 calls)

     Called by c_bands:
     init_us_2    :      8.68s CPU      4.37s WALL (    4514 calls)
     cegterg      :    229.89s CPU    116.87s WALL (    2146 calls)

     Called by *egterg:
     cdiaghg      :      3.52s CPU      1.80s WALL (    8927 calls)
     h_psi        :    200.90s CPU    102.25s WALL (    9075 calls)
     s_psi        :      5.30s CPU      2.68s WALL (    9075 calls)
     g_psi        :      1.15s CPU      0.58s WALL (    6855 calls)

     Called by h_psi:
     h_psi:calbec :      5.79s CPU      2.94s WALL (    9075 calls)
     vloc_psi     :    186.05s CPU     94.73s WALL (    9075 calls)
     add_vuspsi   :      7.17s CPU      3.62s WALL (    9075 calls)

     General routines
     calbec       :      7.50s CPU      3.82s WALL (   11591 calls)
     fft          :      1.76s CPU      0.90s WALL (     401 calls)
     ffts         :      0.18s CPU      0.09s WALL (      58 calls)
     fftw         :    187.10s CPU     95.35s WALL (  180070 calls)
     interpolate  :      0.34s CPU      0.18s WALL (      29 calls)
 
     Parallel routines
 
     PWSCF        :   5m31.01s CPU   2m51.17s WALL

 
   This run was terminated on:  12: 3:33   6Apr2022            

=------------------------------------------------------------------------------=
   JOB DONE.
=------------------------------------------------------------------------------=
