
     Program PWSCF v.6.8 starts on  6Apr2022 at 11:56:18 

     This program is part of the open-source Quantum ESPRESSO suite
     for quantum simulation of materials; please cite
         "P. Giannozzi et al., J. Phys.:Condens. Matter 21 395502 (2009);
         "P. Giannozzi et al., J. Phys.:Condens. Matter 29 465901 (2017);
         "P. Giannozzi et al., J. Chem. Phys. 152 154105 (2020);
          URL http://www.quantum-espresso.org", 
     in publications or presentations arising from this work. More details at
     http://www.quantum-espresso.org/quote

     Parallel version (MPI & OpenMP), running on       4 processor cores
     Number of MPI processes:                 2
     Threads/MPI process:                     2

     MPI processes distributed on     1 nodes
     R & G space division:  proc/nbgrp/npool/nimage =       2
     125220 MiB available memory on the printing compute node when the environment starts
 
     Reading input from MoS2.scf.85.in

     Current dimensions of program PWSCF are:
     Max number of different atomic species (ntypx) = 10
     Max number of k-points (npk) =  40000
     Max angular momentum in pseudopotentials (lmaxx) =  4
     file Mo.pbesol-spn-kjpaw_psl.1.0.0.UPF: wavefunction(s)  4S 4D renormalized
     file S.pbesol-nl-kjpaw_psl.1.0.0.UPF: wavefunction(s)  3S renormalized

     Subspace diagonalization in iterative solution of the eigenvalue problem:
     a serial algorithm will be used

 
     Parallelization info
     --------------------
     sticks:   dense  smooth     PW     G-vecs:    dense   smooth      PW
     Min         519     411    126                68523    48933    8514
     Max         520     412    127                68526    48948    8529
     Sum        1039     823    253               137049    97881   17043
 
     Using Slab Decomposition
 


     bravais-lattice index     =            0
     lattice parameter (alat)  =       6.0720  a.u.
     unit-cell volume          =     924.7995 (a.u.)^3
     number of atoms/cell      =            3
     number of atomic types    =            2
     number of electrons       =        26.00
     number of Kohn-Sham states=           13
     kinetic-energy cutoff     =      85.0000  Ry
     charge density cutoff     =     425.0000  Ry
     scf convergence threshold =      1.0E-12
     mixing beta               =       0.7000
     number of iterations used =            8  plain     mixing
     Exchange-correlation= SLA  PW   PSX  PSC
                           (   1   4  10   8   0   0   0)

     celldm(1)=   6.072000  celldm(2)=   0.000000  celldm(3)=   0.000000
     celldm(4)=   0.000000  celldm(5)=   0.000000  celldm(6)=   0.000000

     crystal axes: (cart. coord. in units of alat)
               a(1) = (   0.976384  -0.000017   0.000000 )  
               a(2) = (  -0.487931   0.846187   0.000000 )  
               a(3) = (   0.000000   0.000000   5.000000 )  

     reciprocal axes: (cart. coord. in units 2 pi/alat)
               b(1) = (  1.024198  0.590577  0.000000 )  
               b(2) = (  0.000021  1.181785  0.000000 )  
               b(3) = (  0.000000  0.000000  0.200000 )  


     PseudoPot. # 1 for Mo read from file:
     /shared/home/as3359/pseudo/Mo.pbesol-spn-kjpaw_psl.1.0.0.UPF
     MD5 check sum: de57925cfc675213e43241dcc441eda8
     Pseudo is Projector augmented-wave + core cor, Zval = 14.0
     Generated using &quot;atomic&quot; code by A. Dal Corso  v.6.3
     Shape of augmentation charge: PSQ
     Using radial grid of 1229 points,  6 beta functions with: 
                l(1) =   0
                l(2) =   0
                l(3) =   1
                l(4) =   1
                l(5) =   2
                l(6) =   2
     Q(r) pseudized with 0 coefficients 


     PseudoPot. # 2 for S  read from file:
     /shared/home/as3359/pseudo/S.pbesol-nl-kjpaw_psl.1.0.0.UPF
     MD5 check sum: bf3db50ec3f960682bbc396f1aadd1dd
     Pseudo is Projector augmented-wave + core cor, Zval =  6.0
     Generated using &quot;atomic&quot; code by A. Dal Corso  v.6.3
     Shape of augmentation charge: PSQ
     Using radial grid of 1151 points,  4 beta functions with: 
                l(1) =   0
                l(2) =   0
                l(3) =   1
                l(4) =   1
     Q(r) pseudized with 0 coefficients 


     atomic species   valence    mass     pseudopotential
        Mo            14.00    95.94000     Mo( 1.00)
        S              6.00    32.06500     S ( 1.00)

     No symmetry found



   Cartesian axes

     site n.     atom                  positions (alat units)
         1           Mo  tau(   1) = (   0.0000000   0.0000000   1.6880765  )
         2           S   tau(   2) = (   0.4883508   0.2821722   2.1737857  )
         3           S   tau(   3) = (   0.4883508   0.2821722   1.2023670  )

     number of k points=    74
                       cart. coord. in units 2pi/alat
        k(    1) = (   0.0000000   0.0000000   0.0000000), wk =   0.0138889
        k(    2) = (   0.0000017   0.0984820   0.0000000), wk =   0.0277778
        k(    3) = (   0.0000035   0.1969641   0.0000000), wk =   0.0277778
        k(    4) = (   0.0000052   0.2954461   0.0000000), wk =   0.0277778
        k(    5) = (   0.0000070   0.3939282   0.0000000), wk =   0.0277778
        k(    6) = (   0.0000087   0.4924102   0.0000000), wk =   0.0277778
        k(    7) = (  -0.0000105  -0.5908923   0.0000000), wk =   0.0138889
        k(    8) = (   0.0853498   0.0492147   0.0000000), wk =   0.0277778
        k(    9) = (   0.0853516   0.1476968   0.0000000), wk =   0.0277778
        k(   10) = (   0.0853533   0.2461788   0.0000000), wk =   0.0277778
        k(   11) = (   0.0853550   0.3446609   0.0000000), wk =   0.0277778
        k(   12) = (   0.0853568   0.4431429   0.0000000), wk =   0.0277778
        k(   13) = (   0.0853585   0.5416249   0.0000000), wk =   0.0277778
        k(   14) = (   0.0853394  -0.5416775   0.0000000), wk =   0.0277778
        k(   15) = (   0.0853411  -0.4431955   0.0000000), wk =   0.0277778
        k(   16) = (   0.0853428  -0.3447135   0.0000000), wk =   0.0277778
        k(   17) = (   0.0853446  -0.2462314   0.0000000), wk =   0.0277778
        k(   18) = (   0.0853463  -0.1477494   0.0000000), wk =   0.0277778
        k(   19) = (   0.0853481  -0.0492673   0.0000000), wk =   0.0277778
        k(   20) = (   0.1706996   0.0984294   0.0000000), wk =   0.0277778
        k(   21) = (   0.1707014   0.1969115   0.0000000), wk =   0.0277778
        k(   22) = (   0.1707031   0.2953935   0.0000000), wk =   0.0277778
        k(   23) = (   0.1707049   0.3938756   0.0000000), wk =   0.0277778
        k(   24) = (   0.1707066   0.4923576   0.0000000), wk =   0.0277778
        k(   25) = (   0.1707083   0.5908397   0.0000000), wk =   0.0277778
        k(   26) = (   0.1706892  -0.4924628   0.0000000), wk =   0.0277778
        k(   27) = (   0.1706909  -0.3939808   0.0000000), wk =   0.0277778
        k(   28) = (   0.1706927  -0.2954987   0.0000000), wk =   0.0277778
        k(   29) = (   0.1706944  -0.1970167   0.0000000), wk =   0.0277778
        k(   30) = (   0.1706961  -0.0985346   0.0000000), wk =   0.0277778
        k(   31) = (   0.1706979  -0.0000526   0.0000000), wk =   0.0277778
        k(   32) = (   0.2560494   0.1476442   0.0000000), wk =   0.0277778
        k(   33) = (   0.2560512   0.2461262   0.0000000), wk =   0.0277778
        k(   34) = (   0.2560529   0.3446082   0.0000000), wk =   0.0277778
        k(   35) = (   0.2560547   0.4430903   0.0000000), wk =   0.0277778
        k(   36) = (   0.2560564   0.5415723   0.0000000), wk =   0.0277778
        k(   37) = (   0.2560582   0.6400544   0.0000000), wk =   0.0277778
        k(   38) = (   0.2560390  -0.4432481   0.0000000), wk =   0.0277778
        k(   39) = (   0.2560407  -0.3447661   0.0000000), wk =   0.0277778
        k(   40) = (   0.2560425  -0.2462840   0.0000000), wk =   0.0277778
        k(   41) = (   0.2560442  -0.1478020   0.0000000), wk =   0.0277778
        k(   42) = (   0.2560460  -0.0493199   0.0000000), wk =   0.0277778
        k(   43) = (   0.2560477   0.0491621   0.0000000), wk =   0.0277778
        k(   44) = (   0.3413993   0.1968589   0.0000000), wk =   0.0277778
        k(   45) = (   0.3414010   0.2953409   0.0000000), wk =   0.0277778
        k(   46) = (   0.3414027   0.3938230   0.0000000), wk =   0.0277778
        k(   47) = (   0.3414045   0.4923050   0.0000000), wk =   0.0277778
        k(   48) = (   0.3414062   0.5907871   0.0000000), wk =   0.0277778
        k(   49) = (   0.3414080   0.6892691   0.0000000), wk =   0.0277778
        k(   50) = (   0.3413888  -0.3940334   0.0000000), wk =   0.0277778
        k(   51) = (   0.3413905  -0.2955513   0.0000000), wk =   0.0277778
        k(   52) = (   0.3413923  -0.1970693   0.0000000), wk =   0.0277778
        k(   53) = (   0.3413940  -0.0985872   0.0000000), wk =   0.0277778
        k(   54) = (   0.3413958  -0.0001052   0.0000000), wk =   0.0277778
        k(   55) = (   0.3413975   0.0983768   0.0000000), wk =   0.0277778
        k(   56) = (   0.4267491   0.2460736   0.0000000), wk =   0.0277778
        k(   57) = (   0.4267508   0.3445556   0.0000000), wk =   0.0277778
        k(   58) = (   0.4267526   0.4430377   0.0000000), wk =   0.0277778
        k(   59) = (   0.4267543   0.5415197   0.0000000), wk =   0.0277778
        k(   60) = (   0.4267560   0.6400018   0.0000000), wk =   0.0277778
        k(   61) = (   0.4267578   0.7384838   0.0000000), wk =   0.0277778
        k(   62) = (   0.4267386  -0.3448187   0.0000000), wk =   0.0277778
        k(   63) = (   0.4267404  -0.2463366   0.0000000), wk =   0.0277778
        k(   64) = (   0.4267421  -0.1478546   0.0000000), wk =   0.0277778
        k(   65) = (   0.4267438  -0.0493725   0.0000000), wk =   0.0277778
        k(   66) = (   0.4267456   0.0491095   0.0000000), wk =   0.0277778
        k(   67) = (   0.4267473   0.1475916   0.0000000), wk =   0.0277778
        k(   68) = (  -0.5120989  -0.2952883   0.0000000), wk =   0.0138889
        k(   69) = (  -0.5120971  -0.1968063   0.0000000), wk =   0.0277778
        k(   70) = (  -0.5120954  -0.0983242   0.0000000), wk =   0.0277778
        k(   71) = (  -0.5120937   0.0001578   0.0000000), wk =   0.0277778
        k(   72) = (  -0.5120919   0.0986398   0.0000000), wk =   0.0277778
        k(   73) = (  -0.5120902   0.1971219   0.0000000), wk =   0.0277778
        k(   74) = (  -0.5121093  -0.8861806   0.0000000), wk =   0.0138889

     Dense  grid:   137049 G-vectors     FFT dimensions: (  40,  40, 200)

     Smooth grid:    97881 G-vectors     FFT dimensions: (  36,  36, 180)

     Estimated max dynamical RAM per process >     349.11 MB

     Estimated total dynamical RAM >     698.22 MB

     Initial potential from superposition of free atoms

     starting charge   25.99914, renormalised to   26.00000

     negative rho (up, down):  1.325E-04 0.000E+00
     Starting wfcs are   18 randomized atomic wfcs
     Checking if some PAW data can be deallocated... 

     total cpu time spent up to now is        3.9 secs

     Self-consistent Calculation

     iteration #  1     ecut=    85.00 Ry     beta= 0.70
     Davidson diagonalization with overlap
     ethr =  1.00E-02,  avg # of iterations =  2.0

     Threshold (ethr) on eigenvalues was too large:
     Diagonalizing with lowered threshold

     Davidson diagonalization with overlap
     ethr =  3.45E-04,  avg # of iterations =  3.9

     negative rho (up, down):  1.424E-04 0.000E+00

     total cpu time spent up to now is       11.7 secs

     total energy              =    -489.69328581 Ry
     estimated scf accuracy    <       0.14263352 Ry

     iteration #  2     ecut=    85.00 Ry     beta= 0.70
     Davidson diagonalization with overlap
     ethr =  5.49E-04,  avg # of iterations =  5.2

     negative rho (up, down):  1.338E-04 0.000E+00

     total cpu time spent up to now is       16.9 secs

     total energy              =    -489.64899074 Ry
     estimated scf accuracy    <       0.56237994 Ry

     iteration #  3     ecut=    85.00 Ry     beta= 0.70
     Davidson diagonalization with overlap
     ethr =  5.49E-04,  avg # of iterations =  5.2

     negative rho (up, down):  1.293E-04 0.000E+00

     total cpu time spent up to now is       21.8 secs

     total energy              =    -489.75260558 Ry
     estimated scf accuracy    <       0.03275241 Ry

     iteration #  4     ecut=    85.00 Ry     beta= 0.70
     Davidson diagonalization with overlap
     ethr =  1.26E-04,  avg # of iterations =  2.5

     negative rho (up, down):  1.369E-04 0.000E+00

     total cpu time spent up to now is       25.4 secs

     total energy              =    -489.75483030 Ry
     estimated scf accuracy    <       0.00457519 Ry

     iteration #  5     ecut=    85.00 Ry     beta= 0.70
     Davidson diagonalization with overlap
     ethr =  1.76E-05,  avg # of iterations =  4.8

     negative rho (up, down):  1.387E-04 0.000E+00

     total cpu time spent up to now is       30.3 secs

     total energy              =    -489.75749046 Ry
     estimated scf accuracy    <       0.00424841 Ry

     iteration #  6     ecut=    85.00 Ry     beta= 0.70
     Davidson diagonalization with overlap
     ethr =  1.63E-05,  avg # of iterations =  1.0

     negative rho (up, down):  1.405E-04 0.000E+00

     total cpu time spent up to now is       33.4 secs

     total energy              =    -489.75679954 Ry
     estimated scf accuracy    <       0.00296203 Ry

     iteration #  7     ecut=    85.00 Ry     beta= 0.70
     Davidson diagonalization with overlap
     ethr =  1.14E-05,  avg # of iterations =  2.6

     negative rho (up, down):  1.419E-04 0.000E+00

     total cpu time spent up to now is       37.1 secs

     total energy              =    -489.75705518 Ry
     estimated scf accuracy    <       0.00032612 Ry

     iteration #  8     ecut=    85.00 Ry     beta= 0.70
     Davidson diagonalization with overlap
     ethr =  1.25E-06,  avg # of iterations =  4.8

     negative rho (up, down):  1.434E-04 0.000E+00

     total cpu time spent up to now is       41.5 secs

     total energy              =    -489.75716812 Ry
     estimated scf accuracy    <       0.00007451 Ry

     iteration #  9     ecut=    85.00 Ry     beta= 0.70
     Davidson diagonalization with overlap
     ethr =  2.87E-07,  avg # of iterations =  4.7

     negative rho (up, down):  1.431E-04 0.000E+00

     total cpu time spent up to now is       46.2 secs

     total energy              =    -489.75715833 Ry
     estimated scf accuracy    <       0.00020975 Ry

     iteration # 10     ecut=    85.00 Ry     beta= 0.70
     Davidson diagonalization with overlap
     ethr =  2.87E-07,  avg # of iterations =  2.6

     negative rho (up, down):  1.431E-04 0.000E+00

     total cpu time spent up to now is       50.0 secs

     total energy              =    -489.75715352 Ry
     estimated scf accuracy    <       0.00005542 Ry

     iteration # 11     ecut=    85.00 Ry     beta= 0.70
     Davidson diagonalization with overlap
     ethr =  2.13E-07,  avg # of iterations =  4.2

     negative rho (up, down):  1.434E-04 0.000E+00

     total cpu time spent up to now is       54.3 secs

     total energy              =    -489.75716573 Ry
     estimated scf accuracy    <       0.00001267 Ry

     iteration # 12     ecut=    85.00 Ry     beta= 0.70
     Davidson diagonalization with overlap
     ethr =  4.87E-08,  avg # of iterations =  3.2

     negative rho (up, down):  1.434E-04 0.000E+00

     total cpu time spent up to now is       58.1 secs

     total energy              =    -489.75716758 Ry
     estimated scf accuracy    <       0.00000077 Ry

     iteration # 13     ecut=    85.00 Ry     beta= 0.70
     Davidson diagonalization with overlap
     ethr =  2.94E-09,  avg # of iterations =  4.9

     negative rho (up, down):  1.434E-04 0.000E+00

     total cpu time spent up to now is       62.8 secs

     total energy              =    -489.75716786 Ry
     estimated scf accuracy    <       0.00000059 Ry

     iteration # 14     ecut=    85.00 Ry     beta= 0.70
     Davidson diagonalization with overlap
     ethr =  2.28E-09,  avg # of iterations =  2.2

     negative rho (up, down):  1.434E-04 0.000E+00

     total cpu time spent up to now is       66.2 secs

     total energy              =    -489.75716786 Ry
     estimated scf accuracy    <       0.00000012 Ry

     iteration # 15     ecut=    85.00 Ry     beta= 0.70
     Davidson diagonalization with overlap
     ethr =  4.73E-10,  avg # of iterations =  4.8

     negative rho (up, down):  1.434E-04 0.000E+00

     total cpu time spent up to now is       70.7 secs

     total energy              =    -489.75716790 Ry
     estimated scf accuracy    <       0.00000005 Ry

     iteration # 16     ecut=    85.00 Ry     beta= 0.70
     Davidson diagonalization with overlap
     ethr =  1.98E-10,  avg # of iterations =  1.7

     negative rho (up, down):  1.434E-04 0.000E+00

     total cpu time spent up to now is       74.0 secs

     total energy              =    -489.75716790 Ry
     estimated scf accuracy    <       0.00000002 Ry

     iteration # 17     ecut=    85.00 Ry     beta= 0.70
     Davidson diagonalization with overlap
     ethr =  9.38E-11,  avg # of iterations =  4.5

     negative rho (up, down):  1.434E-04 0.000E+00

     total cpu time spent up to now is       78.2 secs

     total energy              =    -489.75716790 Ry
     estimated scf accuracy    <       0.00000002 Ry

     iteration # 18     ecut=    85.00 Ry     beta= 0.70
     Davidson diagonalization with overlap
     ethr =  6.41E-11,  avg # of iterations =  1.3

     negative rho (up, down):  1.434E-04 0.000E+00

     total cpu time spent up to now is       81.3 secs

     total energy              =    -489.75716790 Ry
     estimated scf accuracy    <          8.0E-09 Ry

     iteration # 19     ecut=    85.00 Ry     beta= 0.70
     Davidson diagonalization with overlap
     ethr =  3.07E-11,  avg # of iterations =  2.6

     negative rho (up, down):  1.434E-04 0.000E+00

     total cpu time spent up to now is       84.8 secs

     total energy              =    -489.75716790 Ry
     estimated scf accuracy    <          1.7E-09 Ry

     iteration # 20     ecut=    85.00 Ry     beta= 0.70
     Davidson diagonalization with overlap
     ethr =  6.59E-12,  avg # of iterations =  4.9

     negative rho (up, down):  1.434E-04 0.000E+00

     total cpu time spent up to now is       89.4 secs

     total energy              =    -489.75716790 Ry
     estimated scf accuracy    <          9.3E-10 Ry

     iteration # 21     ecut=    85.00 Ry     beta= 0.70
     Davidson diagonalization with overlap
     ethr =  3.56E-12,  avg # of iterations =  1.1

     negative rho (up, down):  1.434E-04 0.000E+00

     total cpu time spent up to now is       92.5 secs

     total energy              =    -489.75716790 Ry
     estimated scf accuracy    <          7.3E-10 Ry

     iteration # 22     ecut=    85.00 Ry     beta= 0.70
     Davidson diagonalization with overlap
     ethr =  2.79E-12,  avg # of iterations =  1.3

     negative rho (up, down):  1.434E-04 0.000E+00

     total cpu time spent up to now is       95.7 secs

     total energy              =    -489.75716790 Ry
     estimated scf accuracy    <          2.9E-10 Ry

     iteration # 23     ecut=    85.00 Ry     beta= 0.70
     Davidson diagonalization with overlap
     ethr =  1.11E-12,  avg # of iterations =  2.6

     negative rho (up, down):  1.434E-04 0.000E+00

     total cpu time spent up to now is       99.1 secs

     total energy              =    -489.75716790 Ry
     estimated scf accuracy    <          1.2E-10 Ry

     iteration # 24     ecut=    85.00 Ry     beta= 0.70
     Davidson diagonalization with overlap
     ethr =  4.68E-13,  avg # of iterations =  4.1

     negative rho (up, down):  1.434E-04 0.000E+00

     total cpu time spent up to now is      103.0 secs

     total energy              =    -489.75716790 Ry
     estimated scf accuracy    <          1.5E-11 Ry

     iteration # 25     ecut=    85.00 Ry     beta= 0.70
     Davidson diagonalization with overlap
     ethr =  1.00E-13,  avg # of iterations =  2.1

     negative rho (up, down):  1.434E-04 0.000E+00

     total cpu time spent up to now is      106.4 secs

     total energy              =    -489.75716790 Ry
     estimated scf accuracy    <          1.1E-11 Ry

     iteration # 26     ecut=    85.00 Ry     beta= 0.70
     Davidson diagonalization with overlap
     ethr =  1.00E-13,  avg # of iterations =  3.3

     negative rho (up, down):  1.434E-04 0.000E+00

     total cpu time spent up to now is      110.2 secs

     total energy              =    -489.75716790 Ry
     estimated scf accuracy    <          3.6E-11 Ry

     iteration # 27     ecut=    85.00 Ry     beta= 0.70
     Davidson diagonalization with overlap
     ethr =  1.00E-13,  avg # of iterations =  1.1

     negative rho (up, down):  1.434E-04 0.000E+00

     total cpu time spent up to now is      113.3 secs

     total energy              =    -489.75716790 Ry
     estimated scf accuracy    <          3.5E-11 Ry

     iteration # 28     ecut=    85.00 Ry     beta= 0.70
     Davidson diagonalization with overlap
