
     Program PWSCF v.6.8 starts on  6Apr2022 at 12:13:24 

     This program is part of the open-source Quantum ESPRESSO suite
     for quantum simulation of materials; please cite
         "P. Giannozzi et al., J. Phys.:Condens. Matter 21 395502 (2009);
         "P. Giannozzi et al., J. Phys.:Condens. Matter 29 465901 (2017);
         "P. Giannozzi et al., J. Chem. Phys. 152 154105 (2020);
          URL http://www.quantum-espresso.org", 
     in publications or presentations arising from this work. More details at
     http://www.quantum-espresso.org/quote

     Parallel version (MPI & OpenMP), running on       4 processor cores
     Number of MPI processes:                 2
     Threads/MPI process:                     2

     MPI processes distributed on     1 nodes
     R & G space division:  proc/nbgrp/npool/nimage =       2
     125209 MiB available memory on the printing compute node when the environment starts
 
     Reading input from MoS2.scf.115.in

     Current dimensions of program PWSCF are:
     Max number of different atomic species (ntypx) = 10
     Max number of k-points (npk) =  40000
     Max angular momentum in pseudopotentials (lmaxx) =  4
     file Mo.pbesol-spn-kjpaw_psl.1.0.0.UPF: wavefunction(s)  4S 4D renormalized
     file S.pbesol-nl-kjpaw_psl.1.0.0.UPF: wavefunction(s)  3S renormalized

     Subspace diagonalization in iterative solution of the eigenvalue problem:
     a serial algorithm will be used

 
     Parallelization info
     --------------------
     sticks:   dense  smooth     PW     G-vecs:    dense   smooth      PW
     Min         696     561    168               107704    77048   12746
     Max         697     562    169               107723    77049   12747
     Sum        1393    1123    337               215427   154097   25493
 
     Using Slab Decomposition
 


     bravais-lattice index     =            0
     lattice parameter (alat)  =       6.0720  a.u.
     unit-cell volume          =     924.7995 (a.u.)^3
     number of atoms/cell      =            3
     number of atomic types    =            2
     number of electrons       =        26.00
     number of Kohn-Sham states=           13
     kinetic-energy cutoff     =     115.0000  Ry
     charge density cutoff     =     575.0000  Ry
     scf convergence threshold =      1.0E-12
     mixing beta               =       0.7000
     number of iterations used =            8  plain     mixing
     Exchange-correlation= SLA  PW   PSX  PSC
                           (   1   4  10   8   0   0   0)

     celldm(1)=   6.072000  celldm(2)=   0.000000  celldm(3)=   0.000000
     celldm(4)=   0.000000  celldm(5)=   0.000000  celldm(6)=   0.000000

     crystal axes: (cart. coord. in units of alat)
               a(1) = (   0.976384  -0.000017   0.000000 )  
               a(2) = (  -0.487931   0.846187   0.000000 )  
               a(3) = (   0.000000   0.000000   5.000000 )  

     reciprocal axes: (cart. coord. in units 2 pi/alat)
               b(1) = (  1.024198  0.590577  0.000000 )  
               b(2) = (  0.000021  1.181785  0.000000 )  
               b(3) = (  0.000000  0.000000  0.200000 )  


     PseudoPot. # 1 for Mo read from file:
     /shared/home/as3359/pseudo/Mo.pbesol-spn-kjpaw_psl.1.0.0.UPF
     MD5 check sum: de57925cfc675213e43241dcc441eda8
     Pseudo is Projector augmented-wave + core cor, Zval = 14.0
     Generated using &quot;atomic&quot; code by A. Dal Corso  v.6.3
     Shape of augmentation charge: PSQ
     Using radial grid of 1229 points,  6 beta functions with: 
                l(1) =   0
                l(2) =   0
                l(3) =   1
                l(4) =   1
                l(5) =   2
                l(6) =   2
     Q(r) pseudized with 0 coefficients 


     PseudoPot. # 2 for S  read from file:
     /shared/home/as3359/pseudo/S.pbesol-nl-kjpaw_psl.1.0.0.UPF
     MD5 check sum: bf3db50ec3f960682bbc396f1aadd1dd
     Pseudo is Projector augmented-wave + core cor, Zval =  6.0
     Generated using &quot;atomic&quot; code by A. Dal Corso  v.6.3
     Shape of augmentation charge: PSQ
     Using radial grid of 1151 points,  4 beta functions with: 
                l(1) =   0
                l(2) =   0
                l(3) =   1
                l(4) =   1
     Q(r) pseudized with 0 coefficients 


     atomic species   valence    mass     pseudopotential
        Mo            14.00    95.94000     Mo( 1.00)
        S              6.00    32.06500     S ( 1.00)

     No symmetry found



   Cartesian axes

     site n.     atom                  positions (alat units)
         1           Mo  tau(   1) = (   0.0000000   0.0000000   1.6880765  )
         2           S   tau(   2) = (   0.4883508   0.2821722   2.1737857  )
         3           S   tau(   3) = (   0.4883508   0.2821722   1.2023670  )

     number of k points=    74
                       cart. coord. in units 2pi/alat
        k(    1) = (   0.0000000   0.0000000   0.0000000), wk =   0.0138889
        k(    2) = (   0.0000017   0.0984820   0.0000000), wk =   0.0277778
        k(    3) = (   0.0000035   0.1969641   0.0000000), wk =   0.0277778
        k(    4) = (   0.0000052   0.2954461   0.0000000), wk =   0.0277778
        k(    5) = (   0.0000070   0.3939282   0.0000000), wk =   0.0277778
        k(    6) = (   0.0000087   0.4924102   0.0000000), wk =   0.0277778
        k(    7) = (  -0.0000105  -0.5908923   0.0000000), wk =   0.0138889
        k(    8) = (   0.0853498   0.0492147   0.0000000), wk =   0.0277778
        k(    9) = (   0.0853516   0.1476968   0.0000000), wk =   0.0277778
        k(   10) = (   0.0853533   0.2461788   0.0000000), wk =   0.0277778
        k(   11) = (   0.0853550   0.3446609   0.0000000), wk =   0.0277778
        k(   12) = (   0.0853568   0.4431429   0.0000000), wk =   0.0277778
        k(   13) = (   0.0853585   0.5416249   0.0000000), wk =   0.0277778
        k(   14) = (   0.0853394  -0.5416775   0.0000000), wk =   0.0277778
        k(   15) = (   0.0853411  -0.4431955   0.0000000), wk =   0.0277778
        k(   16) = (   0.0853428  -0.3447135   0.0000000), wk =   0.0277778
        k(   17) = (   0.0853446  -0.2462314   0.0000000), wk =   0.0277778
        k(   18) = (   0.0853463  -0.1477494   0.0000000), wk =   0.0277778
        k(   19) = (   0.0853481  -0.0492673   0.0000000), wk =   0.0277778
        k(   20) = (   0.1706996   0.0984294   0.0000000), wk =   0.0277778
        k(   21) = (   0.1707014   0.1969115   0.0000000), wk =   0.0277778
        k(   22) = (   0.1707031   0.2953935   0.0000000), wk =   0.0277778
        k(   23) = (   0.1707049   0.3938756   0.0000000), wk =   0.0277778
        k(   24) = (   0.1707066   0.4923576   0.0000000), wk =   0.0277778
        k(   25) = (   0.1707083   0.5908397   0.0000000), wk =   0.0277778
        k(   26) = (   0.1706892  -0.4924628   0.0000000), wk =   0.0277778
        k(   27) = (   0.1706909  -0.3939808   0.0000000), wk =   0.0277778
        k(   28) = (   0.1706927  -0.2954987   0.0000000), wk =   0.0277778
        k(   29) = (   0.1706944  -0.1970167   0.0000000), wk =   0.0277778
        k(   30) = (   0.1706961  -0.0985346   0.0000000), wk =   0.0277778
        k(   31) = (   0.1706979  -0.0000526   0.0000000), wk =   0.0277778
        k(   32) = (   0.2560494   0.1476442   0.0000000), wk =   0.0277778
        k(   33) = (   0.2560512   0.2461262   0.0000000), wk =   0.0277778
        k(   34) = (   0.2560529   0.3446082   0.0000000), wk =   0.0277778
        k(   35) = (   0.2560547   0.4430903   0.0000000), wk =   0.0277778
        k(   36) = (   0.2560564   0.5415723   0.0000000), wk =   0.0277778
        k(   37) = (   0.2560582   0.6400544   0.0000000), wk =   0.0277778
        k(   38) = (   0.2560390  -0.4432481   0.0000000), wk =   0.0277778
        k(   39) = (   0.2560407  -0.3447661   0.0000000), wk =   0.0277778
        k(   40) = (   0.2560425  -0.2462840   0.0000000), wk =   0.0277778
        k(   41) = (   0.2560442  -0.1478020   0.0000000), wk =   0.0277778
        k(   42) = (   0.2560460  -0.0493199   0.0000000), wk =   0.0277778
        k(   43) = (   0.2560477   0.0491621   0.0000000), wk =   0.0277778
        k(   44) = (   0.3413993   0.1968589   0.0000000), wk =   0.0277778
        k(   45) = (   0.3414010   0.2953409   0.0000000), wk =   0.0277778
        k(   46) = (   0.3414027   0.3938230   0.0000000), wk =   0.0277778
        k(   47) = (   0.3414045   0.4923050   0.0000000), wk =   0.0277778
        k(   48) = (   0.3414062   0.5907871   0.0000000), wk =   0.0277778
        k(   49) = (   0.3414080   0.6892691   0.0000000), wk =   0.0277778
        k(   50) = (   0.3413888  -0.3940334   0.0000000), wk =   0.0277778
        k(   51) = (   0.3413905  -0.2955513   0.0000000), wk =   0.0277778
        k(   52) = (   0.3413923  -0.1970693   0.0000000), wk =   0.0277778
        k(   53) = (   0.3413940  -0.0985872   0.0000000), wk =   0.0277778
        k(   54) = (   0.3413958  -0.0001052   0.0000000), wk =   0.0277778
        k(   55) = (   0.3413975   0.0983768   0.0000000), wk =   0.0277778
        k(   56) = (   0.4267491   0.2460736   0.0000000), wk =   0.0277778
        k(   57) = (   0.4267508   0.3445556   0.0000000), wk =   0.0277778
        k(   58) = (   0.4267526   0.4430377   0.0000000), wk =   0.0277778
        k(   59) = (   0.4267543   0.5415197   0.0000000), wk =   0.0277778
        k(   60) = (   0.4267560   0.6400018   0.0000000), wk =   0.0277778
        k(   61) = (   0.4267578   0.7384838   0.0000000), wk =   0.0277778
        k(   62) = (   0.4267386  -0.3448187   0.0000000), wk =   0.0277778
        k(   63) = (   0.4267404  -0.2463366   0.0000000), wk =   0.0277778
        k(   64) = (   0.4267421  -0.1478546   0.0000000), wk =   0.0277778
        k(   65) = (   0.4267438  -0.0493725   0.0000000), wk =   0.0277778
        k(   66) = (   0.4267456   0.0491095   0.0000000), wk =   0.0277778
        k(   67) = (   0.4267473   0.1475916   0.0000000), wk =   0.0277778
        k(   68) = (  -0.5120989  -0.2952883   0.0000000), wk =   0.0138889
        k(   69) = (  -0.5120971  -0.1968063   0.0000000), wk =   0.0277778
        k(   70) = (  -0.5120954  -0.0983242   0.0000000), wk =   0.0277778
        k(   71) = (  -0.5120937   0.0001578   0.0000000), wk =   0.0277778
        k(   72) = (  -0.5120919   0.0986398   0.0000000), wk =   0.0277778
        k(   73) = (  -0.5120902   0.1971219   0.0000000), wk =   0.0277778
        k(   74) = (  -0.5121093  -0.8861806   0.0000000), wk =   0.0138889

     Dense  grid:   215427 G-vectors     FFT dimensions: (  45,  45, 240)

     Smooth grid:   154097 G-vectors     FFT dimensions: (  45,  45, 216)

     Estimated max dynamical RAM per process >     546.95 MB

     Estimated total dynamical RAM >       1.07 GB

     Initial potential from superposition of free atoms

     starting charge   25.99914, renormalised to   26.00000

     negative rho (up, down):  8.493E-05 0.000E+00
     Starting wfcs are   18 randomized atomic wfcs
     Checking if some PAW data can be deallocated... 

     total cpu time spent up to now is        7.4 secs

     Self-consistent Calculation

     iteration #  1     ecut=   115.00 Ry     beta= 0.70
     Davidson diagonalization with overlap
     ethr =  1.00E-02,  avg # of iterations =  2.0

     Threshold (ethr) on eigenvalues was too large:
     Diagonalizing with lowered threshold

     Davidson diagonalization with overlap
     ethr =  3.44E-04,  avg # of iterations =  3.9

     negative rho (up, down):  1.092E-04 0.000E+00

     total cpu time spent up to now is       25.6 secs

     total energy              =    -489.69402241 Ry
     estimated scf accuracy    <       0.14243143 Ry

     iteration #  2     ecut=   115.00 Ry     beta= 0.70
     Davidson diagonalization with overlap
     ethr =  5.48E-04,  avg # of iterations =  5.2

     negative rho (up, down):  1.036E-04 0.000E+00

     total cpu time spent up to now is       37.3 secs

     total energy              =    -489.65011801 Ry
     estimated scf accuracy    <       0.56016826 Ry

     iteration #  3     ecut=   115.00 Ry     beta= 0.70
     Davidson diagonalization with overlap
     ethr =  5.48E-04,  avg # of iterations =  5.2

     negative rho (up, down):  1.048E-04 0.000E+00

     total cpu time spent up to now is       48.6 secs

     total energy              =    -489.75329818 Ry
     estimated scf accuracy    <       0.03193984 Ry

     iteration #  4     ecut=   115.00 Ry     beta= 0.70
     Davidson diagonalization with overlap
     ethr =  1.23E-04,  avg # of iterations =  2.6

     negative rho (up, down):  1.129E-04 0.000E+00

     total cpu time spent up to now is       56.9 secs

     total energy              =    -489.75548953 Ry
     estimated scf accuracy    <       0.00456451 Ry

     iteration #  5     ecut=   115.00 Ry     beta= 0.70
     Davidson diagonalization with overlap
     ethr =  1.76E-05,  avg # of iterations =  4.9

     negative rho (up, down):  1.138E-04 0.000E+00

     total cpu time spent up to now is       67.9 secs

     total energy              =    -489.75814061 Ry
     estimated scf accuracy    <       0.00425957 Ry

     iteration #  6     ecut=   115.00 Ry     beta= 0.70
     Davidson diagonalization with overlap
     ethr =  1.64E-05,  avg # of iterations =  1.0

     negative rho (up, down):  1.154E-04 0.000E+00

     total cpu time spent up to now is       74.8 secs

     total energy              =    -489.75745029 Ry
     estimated scf accuracy    <       0.00298077 Ry

     iteration #  7     ecut=   115.00 Ry     beta= 0.70
     Davidson diagonalization with overlap
     ethr =  1.15E-05,  avg # of iterations =  2.7

     negative rho (up, down):  1.167E-04 0.000E+00

     total cpu time spent up to now is       83.0 secs

     total energy              =    -489.75770436 Ry
     estimated scf accuracy    <       0.00036028 Ry

     iteration #  8     ecut=   115.00 Ry     beta= 0.70
     Davidson diagonalization with overlap
     ethr =  1.39E-06,  avg # of iterations =  4.7

     negative rho (up, down):  1.188E-04 0.000E+00

     total cpu time spent up to now is       93.0 secs

     total energy              =    -489.75781265 Ry
     estimated scf accuracy    <       0.00004048 Ry

     iteration #  9     ecut=   115.00 Ry     beta= 0.70
     Davidson diagonalization with overlap
     ethr =  1.56E-07,  avg # of iterations =  5.3

     negative rho (up, down):  1.187E-04 0.000E+00

     total cpu time spent up to now is      104.7 secs

     total energy              =    -489.75781848 Ry
     estimated scf accuracy    <       0.00014920 Ry

     iteration # 10     ecut=   115.00 Ry     beta= 0.70
     Davidson diagonalization with overlap
     ethr =  1.56E-07,  avg # of iterations =  2.6

     negative rho (up, down):  1.187E-04 0.000E+00

     total cpu time spent up to now is      113.2 secs

     total energy              =    -489.75780122 Ry
     estimated scf accuracy    <       0.00006945 Ry

     iteration # 11     ecut=   115.00 Ry     beta= 0.70
     Davidson diagonalization with overlap
     ethr =  1.56E-07,  avg # of iterations =  4.2

     negative rho (up, down):  1.188E-04 0.000E+00

     total cpu time spent up to now is      123.4 secs

     total energy              =    -489.75781463 Ry
     estimated scf accuracy    <       0.00001402 Ry

     iteration # 12     ecut=   115.00 Ry     beta= 0.70
     Davidson diagonalization with overlap
     ethr =  5.39E-08,  avg # of iterations =  2.9

     negative rho (up, down):  1.188E-04 0.000E+00

     total cpu time spent up to now is      132.0 secs

     total energy              =    -489.75781616 Ry
     estimated scf accuracy    <       0.00000160 Ry

     iteration # 13     ecut=   115.00 Ry     beta= 0.70
     Davidson diagonalization with overlap
     ethr =  6.16E-09,  avg # of iterations =  4.6

     negative rho (up, down):  1.188E-04 0.000E+00

     total cpu time spent up to now is      142.5 secs

     total energy              =    -489.75781640 Ry
     estimated scf accuracy    <       0.00000093 Ry

     iteration # 14     ecut=   115.00 Ry     beta= 0.70
     Davidson diagonalization with overlap
     ethr =  3.57E-09,  avg # of iterations =  2.5

     negative rho (up, down):  1.188E-04 0.000E+00

     total cpu time spent up to now is      151.1 secs

     total energy              =    -489.75781653 Ry
     estimated scf accuracy    <       0.00000003 Ry

     iteration # 15     ecut=   115.00 Ry     beta= 0.70
     Davidson diagonalization with overlap
     ethr =  1.28E-10,  avg # of iterations =  5.9

     negative rho (up, down):  1.189E-04 0.000E+00

     total cpu time spent up to now is      164.7 secs

     total energy              =    -489.75781655 Ry
     estimated scf accuracy    <       0.00000023 Ry

     iteration # 16     ecut=   115.00 Ry     beta= 0.70
     Davidson diagonalization with overlap
     ethr =  1.28E-10,  avg # of iterations =  4.5

     negative rho (up, down):  1.189E-04 0.000E+00

     total cpu time spent up to now is      175.2 secs

     total energy              =    -489.75781655 Ry
     estimated scf accuracy    <       0.00000006 Ry

     iteration # 17     ecut=   115.00 Ry     beta= 0.70
     Davidson diagonalization with overlap
     ethr =  1.28E-10,  avg # of iterations =  3.8

     negative rho (up, down):  1.189E-04 0.000E+00

     total cpu time spent up to now is      184.8 secs

     total energy              =    -489.75781656 Ry
     estimated scf accuracy    <       0.00000002 Ry

     iteration # 18     ecut=   115.00 Ry     beta= 0.70
     Davidson diagonalization with overlap
     ethr =  7.92E-11,  avg # of iterations =  1.8

     negative rho (up, down):  1.189E-04 0.000E+00

     total cpu time spent up to now is      192.1 secs

     total energy              =    -489.75781656 Ry
     estimated scf accuracy    <       0.00000001 Ry

     iteration # 19     ecut=   115.00 Ry     beta= 0.70
     Davidson diagonalization with overlap
     ethr =  4.24E-11,  avg # of iterations =  1.3

     negative rho (up, down):  1.189E-04 0.000E+00

     total cpu time spent up to now is      199.1 secs

     total energy              =    -489.75781656 Ry
     estimated scf accuracy    <       0.00000001 Ry

     iteration # 20     ecut=   115.00 Ry     beta= 0.70
     Davidson diagonalization with overlap
     ethr =  4.24E-11,  avg # of iterations =  2.1

     negative rho (up, down):  1.189E-04 0.000E+00

     total cpu time spent up to now is      206.6 secs

     total energy              =    -489.75781656 Ry
     estimated scf accuracy    <          4.0E-09 Ry

     iteration # 21     ecut=   115.00 Ry     beta= 0.70
     Davidson diagonalization with overlap
     ethr =  1.55E-11,  avg # of iterations =  4.2

     negative rho (up, down):  1.189E-04 0.000E+00

     total cpu time spent up to now is      215.9 secs

     total energy              =    -489.75781656 Ry
     estimated scf accuracy    <          7.7E-10 Ry

     iteration # 22     ecut=   115.00 Ry     beta= 0.70
     Davidson diagonalization with overlap
     ethr =  2.97E-12,  avg # of iterations =  1.9

     negative rho (up, down):  1.189E-04 0.000E+00

     total cpu time spent up to now is      223.2 secs

     total energy              =    -489.75781656 Ry
     estimated scf accuracy    <          6.5E-10 Ry

     iteration # 23     ecut=   115.00 Ry     beta= 0.70
     Davidson diagonalization with overlap
     ethr =  2.48E-12,  avg # of iterations =  2.0

     negative rho (up, down):  1.189E-04 0.000E+00

     total cpu time spent up to now is      230.7 secs

     total energy              =    -489.75781656 Ry
     estimated scf accuracy    <          2.1E-10 Ry

     iteration # 24     ecut=   115.00 Ry     beta= 0.70
     Davidson diagonalization with overlap
     ethr =  7.95E-13,  avg # of iterations =  4.6

     negative rho (up, down):  1.189E-04 0.000E+00

     total cpu time spent up to now is      240.9 secs

     total energy              =    -489.75781656 Ry
     estimated scf accuracy    <          8.8E-11 Ry

     iteration # 25     ecut=   115.00 Ry     beta= 0.70
     Davidson diagonalization with overlap
     ethr =  3.40E-13,  avg # of iterations =  2.2

     negative rho (up, down):  1.189E-04 0.000E+00

     total cpu time spent up to now is      248.8 secs

     total energy              =    -489.75781656 Ry
     estimated scf accuracy    <          4.2E-11 Ry

     iteration # 26     ecut=   115.00 Ry     beta= 0.70
     Davidson diagonalization with overlap
     ethr =  1.62E-13,  avg # of iterations =  2.8

     negative rho (up, down):  1.189E-04 0.000E+00

     total cpu time spent up to now is      256.9 secs

     total energy              =    -489.75781656 Ry
     estimated scf accuracy    <          2.3E-11 Ry

     iteration # 27     ecut=   115.00 Ry     beta= 0.70
     Davidson diagonalization with overlap
     ethr =  1.00E-13,  avg # of iterations =  2.3

     negative rho (up, down):  1.189E-04 0.000E+00

     total cpu time spent up to now is      264.7 secs

     total energy              =    -489.75781656 Ry
     estimated scf accuracy    <          3.5E-12 Ry

     iteration # 28     ecut=   115.00 Ry     beta= 0.70
     Davidson diagonalization with overlap
     ethr =  1.00E-13,  avg # of iterations =  3.1

     negative rho (up, down):  1.189E-04 0.000E+00

     total cpu time spent up to now is      273.1 secs

     total energy              =    -489.75781656 Ry
     estimated scf accuracy    <          5.4E-12 Ry

     iteration # 29     ecut=   115.00 Ry     beta= 0.70
     Davidson diagonalization with overlap
     ethr =  1.00E-13,  avg # of iterations =  1.0

     negative rho (up, down):  1.189E-04 0.000E+00

     total cpu time spent up to now is      279.9 secs

     total energy              =    -489.75781656 Ry
     estimated scf accuracy    <          3.3E-12 Ry

     iteration # 30     ecut=   115.00 Ry     beta= 0.70
     Davidson diagonalization with overlap
     ethr =  1.00E-13,  avg # of iterations =  1.3

     negative rho (up, down):  1.189E-04 0.000E+00

     total cpu time spent up to now is      286.7 secs

     End of self-consistent calculation

          k = 0.0000 0.0000 0.0000 ( 19293 PWs)   bands (ev):

   -60.3485 -34.5534 -34.2856 -34.2843 -13.8552 -12.5036  -5.4144  -2.2346
    -2.2259  -1.4939  -1.0736  -1.0672   0.2789

          k = 0.0000 0.0985 0.0000 ( 19201 PWs)   bands (ev):

   -60.3454 -34.5474 -34.3156 -34.2911 -13.7454 -12.4583  -5.2904  -2.4747
    -2.1115  -1.9584  -1.2406  -0.7777   0.2366

          k = 0.0000 0.1970 0.0000 ( 19224 PWs)   bands (ev):

   -60.3371 -34.5312 -34.3969 -34.3095 -13.4326 -12.3294  -4.9797  -3.0230
    -2.6262  -1.7911  -1.6471  -0.7040   0.0214

          k = 0.0000 0.2954 0.0000 ( 19234 PWs)   bands (ev):

   -60.3257 -34.5089 -34.5064 -34.3346 -12.9679 -12.1394  -4.7597  -3.4845
    -3.3109  -2.1006  -1.3426  -0.9772  -0.4116

          k = 0.0000 0.3939 0.0000 ( 19218 PWs)   bands (ev):

   -60.3142 -34.6140 -34.4865 -34.3595 -12.4427 -11.9295  -5.0168  -3.9458
    -3.5888  -2.4811  -1.3008  -0.8970  -0.6652

          k = 0.0000 0.4924 0.0000 ( 19260 PWs)   bands (ev):

   -60.3059 -34.6917 -34.4701 -34.3777 -12.0008 -11.7598  -5.4147  -4.4117
    -3.7136  -2.7277  -1.5047  -0.5933  -0.4740

          k =-0.0000-0.5909 0.0000 ( 19272 PWs)   bands (ev):

   -60.3028 -34.7199 -34.4640 -34.3843 -11.8219 -11.6935  -5.5872  -4.5846
    -3.8031  -2.8126  -1.5699  -0.4919  -0.2950

          k = 0.0853 0.0492 0.0000 ( 19205 PWs)   bands (ev):

   -60.3454 -34.5474 -34.3149 -34.2919 -13.7453 -12.4582  -5.2904  -2.4712
    -2.1154  -1.9562  -1.2460  -0.7749   0.2370

          k = 0.0854 0.1477 0.0000 ( 19224 PWs)   bands (ev):

   -60.3397 -34.5363 -34.3695 -34.3055 -13.5339 -12.3709  -5.0692  -2.8610
    -2.4004  -1.9033  -1.6500  -0.5822   0.1086

          k = 0.0854 0.2462 0.0000 ( 19224 PWs)   bands (ev):

   -60.3299 -34.5171 -34.4610 -34.3311 -13.1442 -12.2103  -4.7708  -3.3489
    -2.9635  -2.2308  -1.5738  -0.6199  -0.2246

          k = 0.0854 0.3447 0.0000 ( 19253 PWs)   bands (ev):

   -60.3184 -34.5648 -34.4947 -34.3607 -12.6453 -12.0068  -4.7990  -3.6378
    -3.5307  -2.6168  -1.3411  -0.9377  -0.5031

          k = 0.0854 0.4431 0.0000 ( 19259 PWs)   bands (ev):

   -60.3085 -34.6535 -34.4753 -34.3863 -12.1523 -11.8107  -5.1609  -4.2547
    -3.5840  -2.7873  -1.2950  -1.2409  -0.3610

          k = 0.0854 0.5416 0.0000 ( 19279 PWs)   bands (ev):

   -60.3028 -34.7041 -34.4640 -34.4010 -11.8300 -11.6868  -5.4417  -4.6160
    -3.7354  -2.8383  -1.5175  -1.0959  -0.1135

          k = 0.0853-0.5417 0.0000 ( 19283 PWs)   bands (ev):

   -60.3028 -34.7042 -34.4640 -34.4010 -11.8299 -11.6867  -5.4419  -4.6159
    -3.7355  -2.8389  -1.5170  -1.0950  -0.1146

          k = 0.0853-0.4432 0.0000 ( 19263 PWs)   bands (ev):

   -60.3085 -34.6536 -34.4753 -34.3863 -12.1520 -11.8106  -5.1614  -4.2545
    -3.5841  -2.7885  -1.2939  -1.2388  -0.3633

          k = 0.0853-0.3447 0.0000 ( 19253 PWs)   bands (ev):

   -60.3184 -34.5650 -34.4947 -34.3607 -12.6449 -12.0067  -4.7991  -3.6379
    -3.5308  -2.6174  -1.3393  -0.9369  -0.5054

          k = 0.0853-0.2462 0.0000 ( 19220 PWs)   bands (ev):

   -60.3298 -34.5170 -34.4611 -34.3312 -13.1439 -12.2102  -4.7706  -3.3484
    -2.9644  -2.2302  -1.5743  -0.6196  -0.2255

          k = 0.0853-0.1477 0.0000 ( 19230 PWs)   bands (ev):

   -60.3397 -34.5363 -34.3694 -34.3058 -13.5337 -12.3708  -5.0689  -2.8589
    -2.4014  -1.9060  -1.6489  -0.5822   0.1085

          k = 0.0853-0.0493 0.0000 ( 19213 PWs)   bands (ev):

   -60.3454 -34.5474 -34.3146 -34.2923 -13.7452 -12.4581  -5.2903  -2.4681
    -2.1188  -1.9566  -1.2456  -0.7749   0.2370

          k = 0.1707 0.0984 0.0000 ( 19222 PWs)   bands (ev):

   -60.3371 -34.5311 -34.3963 -34.3104 -13.4323 -12.3288  -4.9796  -3.0204
    -2.6234  -1.7949  -1.6529  -0.7026   0.0231

          k = 0.1707 0.1969 0.0000 ( 19220 PWs)   bands (ev):

   -60.3298 -34.5170 -34.4607 -34.3316 -13.1440 -12.2099  -4.7708  -3.3475
    -2.9612  -2.2345  -1.5758  -0.6198  -0.2234

          k = 0.1707 0.2954 0.0000 ( 19218 PWs)   bands (ev):

   -60.3200 -34.5395 -34.4977 -34.3688 -12.7172 -12.0330  -4.6896  -3.4871
    -3.3882  -2.8934  -1.5785  -0.6547  -0.4347

          k = 0.1707 0.3939 0.0000 ( 19273 PWs)   bands (ev):

   -60.3100 -34.6134 -34.4783 -34.4100 -12.2400 -11.8352  -4.8885  -4.1146
    -3.3893  -3.0080  -1.8997  -0.9773  -0.3638

          k = 0.1707 0.4924 0.0000 ( 19288 PWs)   bands (ev):

   -60.3028 -34.6656 -34.4641 -34.4414 -11.8459 -11.6731  -5.1013  -4.6738
    -3.5276  -2.9127  -2.0140  -1.3741  -0.1094

          k = 0.1707 0.5908 0.0000 ( 19300 PWs)   bands (ev):

   -60.3001 -34.6845 -34.4588 -34.4530 -11.6890 -11.6091  -5.1813  -4.8775
    -3.6693  -2.8312  -1.9984  -1.5663   0.0715

          k = 0.1707-0.4925 0.0000 ( 19286 PWs)   bands (ev):

   -60.3027 -34.6658 -34.4640 -34.4413 -11.8454 -11.6729  -5.1020  -4.6736
    -3.5278  -2.9138  -2.0124  -1.3731  -0.1111

          k = 0.1707-0.3940 0.0000 ( 19271 PWs)   bands (ev):

   -60.3100 -34.6137 -34.4783 -34.4100 -12.2392 -11.8349  -4.8892  -4.1143
    -3.3894  -3.0093  -1.8977  -0.9762  -0.3661

          k = 0.1707-0.2955 0.0000 ( 19218 PWs)   bands (ev):

   -60.3199 -34.5396 -34.4976 -34.3690 -12.7165 -12.0327  -4.6897  -3.4864
    -3.3884  -2.8941  -1.5780  -0.6539  -0.4369

          k = 0.1707-0.1970 0.0000 ( 19223 PWs)   bands (ev):

   -60.3298 -34.5170 -34.4606 -34.3319 -13.1434 -12.2096  -4.7705  -3.3457
    -2.9619  -2.2346  -1.5780  -0.6193  -0.2241

          k = 0.1707-0.0985 0.0000 ( 19228 PWs)   bands (ev):

   -60.3371 -34.5311 -34.3961 -34.3108 -13.4320 -12.3287  -4.9793  -3.0180
    -2.6237  -1.7980  -1.6535  -0.7018   0.0232

          k = 0.1707-0.0001 0.0000 ( 19238 PWs)   bands (ev):

   -60.3397 -34.5363 -34.3688 -34.3065 -13.5335 -12.3704  -5.0688  -2.8570
    -2.3995  -1.9089  -1.6525  -0.5813   0.1095

          k = 0.2560 0.1476 0.0000 ( 19240 PWs)   bands (ev):

   -60.3256 -34.5088 -34.5059 -34.3355 -12.9673 -12.1382  -4.7597  -3.4822
    -3.3088  -2.1069  -1.3464  -0.9762  -0.4087

          k = 0.2561 0.2461 0.0000 ( 19249 PWs)   bands (ev):

   -60.3184 -34.5645 -34.4947 -34.3615 -12.6448 -12.0057  -4.7989  -3.6361
    -3.5286  -2.6215  -1.3437  -0.9376  -0.5016

          k = 0.2561 0.3446 0.0000 ( 19269 PWs)   bands (ev):

   -60.3100 -34.6132 -34.4783 -34.4104 -12.2396 -11.8345  -4.8882  -4.1144
    -3.3883  -3.0098  -1.9011  -0.9772  -0.3634

          k = 0.2561 0.4431 0.0000 ( 19254 PWs)   bands (ev):

   -60.3027 -34.6397 -34.4683 -34.4640 -11.8535 -11.6657  -4.8957  -4.7009
    -3.2618  -2.9581  -2.6206  -1.2851  -0.1375

          k = 0.2561 0.5416 0.0000 ( 19318 PWs)   bands (ev):

   -60.2985 -34.6453 -34.5115 -34.4558 -11.6122 -11.5570  -5.0668  -4.7708
    -3.5327  -2.8883  -2.7487  -1.6397   0.1797

          k = 0.2561 0.6401 0.0000 ( 19320 PWs)   bands (ev):

   -60.2985 -34.6455 -34.5115 -34.4558 -11.6118 -11.5568  -5.0668  -4.7714
    -3.5330  -2.8873  -2.7493  -1.6392   0.1790

          k = 0.2560-0.4432 0.0000 ( 19254 PWs)   bands (ev):

   -60.3027 -34.6400 -34.4684 -34.4640 -11.8526 -11.6653  -4.8967  -4.7008
    -3.2622  -2.9594  -2.6188  -1.2844  -0.1391

          k = 0.2560-0.3448 0.0000 ( 19267 PWs)   bands (ev):

   -60.3100 -34.6134 -34.4782 -34.4106 -12.2385 -11.8341  -4.8888  -4.1141
    -3.3870  -3.0114  -1.9007  -0.9765  -0.3655

          k = 0.2560-0.2463 0.0000 ( 19249 PWs)   bands (ev):

   -60.3183 -34.5645 -34.4946 -34.3619 -12.6438 -12.0053  -4.7989  -3.6359
    -3.5267  -2.6232  -1.3446  -0.9370  -0.5036

          k = 0.2560-0.1478 0.0000 ( 19240 PWs)   bands (ev):

   -60.3256 -34.5088 -34.5058 -34.3360 -12.9666 -12.1379  -4.7594  -3.4800
    -3.3087  -2.1084  -1.3493  -0.9755  -0.4088

          k = 0.2560-0.0493 0.0000 ( 19221 PWs)   bands (ev):

   -60.3298 -34.5170 -34.4605 -34.3322 -13.1430 -12.2091  -4.7703  -3.3461
    -2.9622  -2.2353  -1.5783  -0.6192  -0.2234

          k = 0.2560 0.0492 0.0000 ( 19220 PWs)   bands (ev):

   -60.3298 -34.5170 -34.4606 -34.3320 -13.1432 -12.2092  -4.7704  -3.3473
    -2.9624  -2.2346  -1.5767  -0.6194  -0.2236

          k = 0.3414 0.1969 0.0000 ( 19228 PWs)   bands (ev):

   -60.3142 -34.6136 -34.4864 -34.3606 -12.4417 -11.9275  -5.0166  -3.9453
    -3.5869  -2.4878  -1.2992  -0.9014  -0.6619

          k = 0.3414 0.2953 0.0000 ( 19266 PWs)   bands (ev):

   -60.3084 -34.6531 -34.4752 -34.3873 -12.1514 -11.8087  -5.1601  -4.2548
    -3.5828  -2.7924  -1.2938  -1.2432  -0.3602

          k = 0.3414 0.3938 0.0000 ( 19288 PWs)   bands (ev):

   -60.3027 -34.6654 -34.4640 -34.4421 -11.8452 -11.6715  -5.1004  -4.6749
    -3.5271  -2.9153  -2.0164  -1.3730  -0.1082

          k = 0.3414 0.4923 0.0000 ( 19314 PWs)   bands (ev):

   -60.2985 -34.6451 -34.5120 -34.4558 -11.6118 -11.5561  -5.0676  -4.7703
    -3.5322  -2.8899  -2.7499  -1.6388   0.1802

          k = 0.3414 0.5908 0.0000 ( 19346 PWs)   bands (ev):

   -60.2969 -34.6128 -34.5627 -34.4527 -11.5244 -11.5100  -5.2234  -4.3604
    -3.8339  -3.2103  -2.5873  -1.8345   0.3755

          k = 0.3414 0.6893 0.0000 ( 19316 PWs)   bands (ev):

   -60.2985 -34.6453 -34.5121 -34.4557 -11.6109 -11.5558  -5.0677  -4.7710
    -3.5318  -2.8899  -2.7507  -1.6386   0.1797

          k = 0.3414-0.3940 0.0000 ( 19290 PWs)   bands (ev):

   -60.3027 -34.6655 -34.4639 -34.4424 -11.8439 -11.6710  -5.1009  -4.6749
    -3.5259  -2.9169  -2.0170  -1.3727  -0.1094

          k = 0.3414-0.2956 0.0000 ( 19268 PWs)   bands (ev):

   -60.3084 -34.6532 -34.4751 -34.3877 -12.1500 -11.8082  -5.1603  -4.2545
    -3.5811  -2.7947  -1.2934  -1.2439  -0.3621

          k = 0.3414-0.1971 0.0000 ( 19230 PWs)   bands (ev):

   -60.3141 -34.6136 -34.4863 -34.3611 -12.4405 -11.9270  -5.0164  -3.9449
    -3.5848  -2.4899  -1.2988  -0.9042  -0.6621

          k = 0.3414-0.0986 0.0000 ( 19259 PWs)   bands (ev):

   -60.3183 -34.5646 -34.4945 -34.3620 -12.6433 -12.0047  -4.7993  -3.6372
    -3.5274  -2.6228  -1.3429  -0.9368  -0.5046

          k = 0.3414-0.0001 0.0000 ( 19214 PWs)   bands (ev):

   -60.3199 -34.5396 -34.4976 -34.3695 -12.7156 -12.0315  -4.6901  -3.4869
    -3.3897  -2.8949  -1.5766  -0.6538  -0.4376

          k = 0.3414 0.0984 0.0000 ( 19265 PWs)   bands (ev):

   -60.3183 -34.5647 -34.4946 -34.3617 -12.6439 -12.0050  -4.7995  -3.6375
    -3.5294  -2.6218  -1.3402  -0.9365  -0.5050

          k = 0.4267 0.2461 0.0000 ( 19254 PWs)   bands (ev):

   -60.3057 -34.6914 -34.4699 -34.3788 -11.9995 -11.7570  -5.4137  -4.4128
    -3.7131  -2.7346  -1.5020  -0.5986  -0.4703

          k = 0.4268 0.3446 0.0000 ( 19286 PWs)   bands (ev):

   -60.3027 -34.7039 -34.4639 -34.4021 -11.8287 -11.6841  -5.4404  -4.6176
    -3.7354  -2.8439  -1.5151  -1.0989  -0.1121

          k = 0.4268 0.4430 0.0000 ( 19304 PWs)   bands (ev):

   -60.3000 -34.6843 -34.4587 -34.4538 -11.6879 -11.6070  -5.1806  -4.8796
    -3.6692  -2.8347  -2.0008  -1.5641   0.0724

          k = 0.4268 0.5415 0.0000 ( 19318 PWs)   bands (ev):

   -60.2985 -34.6453 -34.5120 -34.4557 -11.6110 -11.5555  -5.0685  -4.7721
    -3.5321  -2.8883  -2.7510  -1.6378   0.1782

          k = 0.4268 0.6400 0.0000 ( 19316 PWs)   bands (ev):

   -60.2984 -34.6454 -34.5122 -34.4557 -11.6105 -11.5553  -5.0686  -4.7722
    -3.5312  -2.8894  -2.7512  -1.6380   0.1784

          k = 0.4268 0.7385 0.0000 ( 19310 PWs)   bands (ev):

   -60.3000 -34.6844 -34.4586 -34.4542 -11.6867 -11.6065  -5.1807  -4.8797
    -3.6683  -2.8357  -2.0023  -1.5644   0.0726

          k = 0.4267-0.3448 0.0000 ( 19285 PWs)   bands (ev):

   -60.3026 -34.7040 -34.4638 -34.4026 -11.8272 -11.6835  -5.4404  -4.6174
    -3.7342  -2.8462  -1.5150  -1.1004  -0.1128

          k = 0.4267-0.2463 0.0000 ( 19250 PWs)   bands (ev):

   -60.3057 -34.6915 -34.4698 -34.3793 -11.9980 -11.7564  -5.4136  -4.4124
    -3.7115  -2.7372  -1.5019  -0.6015  -0.4700

          k = 0.4267-0.1479 0.0000 ( 19269 PWs)   bands (ev):

   -60.3084 -34.6534 -34.4751 -34.3878 -12.1496 -11.8077  -5.1612  -4.2555
    -3.5811  -2.7946  -1.2929  -1.2424  -0.3638

          k = 0.4267-0.0494 0.0000 ( 19275 PWs)   bands (ev):

   -60.3099 -34.6136 -34.4781 -34.4108 -12.2376 -11.8329  -4.8903  -4.1163
    -3.3876  -3.0113  -1.8980  -0.9760  -0.3678

          k = 0.4267 0.0491 0.0000 ( 19271 PWs)   bands (ev):

   -60.3099 -34.6136 -34.4782 -34.4106 -12.2380 -11.8331  -4.8904  -4.1163
    -3.3890  -3.0110  -1.8963  -0.9756  -0.3680

          k = 0.4267 0.1476 0.0000 ( 19261 PWs)   bands (ev):

   -60.3084 -34.6534 -34.4752 -34.3873 -12.1506 -11.8081  -5.1614  -4.2557
    -3.5830  -2.7934  -1.2924  -1.2396  -0.3641

          k =-0.5121-0.2953 0.0000 ( 19280 PWs)   bands (ev):

   -60.3027 -34.7197 -34.4639 -34.3854 -11.8204 -11.6905  -5.5859  -4.5863
    -3.8031  -2.8196  -1.5668  -0.4977  -0.2911

          k =-0.5121-0.1968 0.0000 ( 19287 PWs)   bands (ev):

   -60.3027 -34.7040 -34.4639 -34.4021 -11.8284 -11.6839  -5.4411  -4.6179
    -3.7353  -2.8445  -1.5144  -1.0974  -0.1141

          k =-0.5121-0.0983 0.0000 ( 19284 PWs)   bands (ev):

   -60.3027 -34.6657 -34.4639 -34.4421 -11.8441 -11.6707  -5.1026  -4.6760
    -3.5271  -2.9167  -2.0133  -1.3715  -0.1120

          k =-0.5121 0.0002 0.0000 ( 19254 PWs)   bands (ev):

   -60.3026 -34.6401 -34.4687 -34.4639 -11.8516 -11.6639  -4.8985  -4.7029
    -3.2623  -2.9603  -2.6170  -1.2835  -0.1413

          k =-0.5121 0.0986 0.0000 ( 19286 PWs)   bands (ev):

   -60.3026 -34.6657 -34.4639 -34.4424 -11.8433 -11.6703  -5.1024  -4.6761
    -3.5257  -2.9171  -2.0155  -1.3721  -0.1116

          k =-0.5121 0.1971 0.0000 ( 19291 PWs)   bands (ev):

   -60.3026 -34.7040 -34.4638 -34.4026 -11.8270 -11.6833  -5.4409  -4.6178
    -3.7341  -2.8463  -1.5147  -1.0998  -0.1137

          k =-0.5121-0.8862 0.0000 ( 19280 PWs)   bands (ev):

   -60.3026 -34.7198 -34.4638 -34.3860 -11.8188 -11.6898  -5.5857  -4.5860
    -3.8020  -2.8223  -1.5667  -0.5007  -0.2904

     highest occupied level (ev):     0.3755

!    total energy              =    -489.75781656 Ry

     total all-electron energy =     -9688.215662 Ry
     estimated scf accuracy    <          1.8E-13 Ry

     The total energy is the sum of the following terms:
     one-electron contribution =    -813.90598646 Ry
     hartree contribution      =     410.77406444 Ry
     xc contribution           =     -29.52477229 Ry
     ewald contribution        =     255.78841210 Ry
     one-center paw contrib.   =    -312.88953436 Ry

     convergence has been achieved in  30 iterations

     negative rho (up, down):  1.189E-04 0.000E+00

     Forces acting on atoms (cartesian axes, Ry/au):

     atom    1 type  1   force =     0.00026877    0.00012924   -0.00000041
     atom    2 type  2   force =    -0.00013439   -0.00006463   -0.00032164
     atom    3 type  2   force =    -0.00013439   -0.00006461    0.00032205

     Total force =     0.000584     Total SCF correction =     0.000003


     Computing stress (Cartesian axis) and pressure


     negative rho (up, down):  1.189E-04 0.000E+00
          total   stress  (Ry/bohr**3)                   (kbar)     P=        0.61
   0.00000909  -0.00000085  -0.00000000            1.34       -0.13       -0.00
  -0.00000085   0.00000595   0.00000000           -0.13        0.88        0.00
  -0.00000000   0.00000000  -0.00000270           -0.00        0.00       -0.40


     Writing output data file /scratch/as3359/MoS2-CT/MoS2.save/
 
     init_run     :     13.06s CPU      7.22s WALL (       1 calls)
     electrons    :    546.07s CPU    279.39s WALL (       1 calls)
     forces       :      3.90s CPU      2.00s WALL (       1 calls)
     stress       :     11.04s CPU      5.68s WALL (       1 calls)

     Called by init_run:
     wfcinit      :      7.90s CPU      4.05s WALL (       1 calls)
     potinit      :      1.47s CPU      0.75s WALL (       1 calls)
     hinit0       :      3.15s CPU      2.11s WALL (       1 calls)

     Called by electrons:
     c_bands      :    440.07s CPU    222.76s WALL (      31 calls)
     sum_band     :     84.08s CPU     43.89s WALL (      31 calls)
     v_of_rho     :      4.97s CPU      2.72s WALL (      31 calls)
     newd         :      8.97s CPU      5.76s WALL (      31 calls)
     PAW_pot      :      6.01s CPU      3.13s WALL (      31 calls)
     mix_rho      :      1.84s CPU      1.07s WALL (      31 calls)

     Called by c_bands:
     init_us_2    :     13.65s CPU      6.85s WALL (    4810 calls)
     cegterg      :    417.88s CPU    211.48s WALL (    2294 calls)

     Called by *egterg:
     cdiaghg      :      3.97s CPU      2.02s WALL (    9546 calls)
     h_psi        :    371.92s CPU    188.36s WALL (    9694 calls)
     s_psi        :     10.60s CPU      5.33s WALL (    9694 calls)
     g_psi        :      1.72s CPU      0.87s WALL (    7326 calls)

     Called by h_psi:
     h_psi:calbec :     10.35s CPU      5.24s WALL (    9694 calls)
     vloc_psi     :    343.88s CPU    174.23s WALL (    9694 calls)
     add_vuspsi   :     15.04s CPU      7.55s WALL (    9694 calls)

     General routines
     calbec       :     13.41s CPU      6.79s WALL (   12358 calls)
     fft          :      2.72s CPU      1.39s WALL (     427 calls)
     ffts         :      0.30s CPU      0.15s WALL (      62 calls)
     fftw         :    351.77s CPU    178.34s WALL (  193966 calls)
     interpolate  :      0.51s CPU      0.27s WALL (      31 calls)
 
     Parallel routines
 
     PWSCF        :   9m35.42s CPU   4m55.54s WALL

 
   This run was terminated on:  12:18:19   6Apr2022            

=------------------------------------------------------------------------------=
   JOB DONE.
=------------------------------------------------------------------------------=
