
     Program PWSCF v.6.8 starts on  7Apr2022 at 13:59:19 

     This program is part of the open-source Quantum ESPRESSO suite
     for quantum simulation of materials; please cite
         "P. Giannozzi et al., J. Phys.:Condens. Matter 21 395502 (2009);
         "P. Giannozzi et al., J. Phys.:Condens. Matter 29 465901 (2017);
         "P. Giannozzi et al., J. Chem. Phys. 152 154105 (2020);
          URL http://www.quantum-espresso.org", 
     in publications or presentations arising from this work. More details at
     http://www.quantum-espresso.org/quote

     Parallel version (MPI & OpenMP), running on       4 processor cores
     Number of MPI processes:                 2
     Threads/MPI process:                     2

     MPI processes distributed on     1 nodes
     R & G space division:  proc/nbgrp/npool/nimage =       2
     125174 MiB available memory on the printing compute node when the environment starts
 
     Reading input from Ta2CO2.vcrelax.in

     Current dimensions of program PWSCF are:
     Max number of different atomic species (ntypx) = 10
     Max number of k-points (npk) =  40000
     Max angular momentum in pseudopotentials (lmaxx) =  4
     file Ta.pbesol-spfn-rrkjus_psl.1.0.0.UPF: wavefunction(s)  5S 5P renormalized

     Subspace diagonalization in iterative solution of the eigenvalue problem:
     a serial algorithm will be used

 
     Parallelization info
     --------------------
     sticks:   dense  smooth     PW     G-vecs:    dense   smooth      PW
     Min         462     324     99               108768    63740   11435
     Max         463     325    100               108789    63771   11474
     Sum         925     649    199               217557   127511   22909
 
     Using Slab Decomposition
 


     bravais-lattice index     =            0
     lattice parameter (alat)  =       5.5500  a.u.
     unit-cell volume          =    1608.7888 (a.u.)^3
     number of atoms/cell      =            5
     number of atomic types    =            3
     number of electrons       =        70.00
     number of Kohn-Sham states=           35
     kinetic-energy cutoff     =      70.0000  Ry
     charge density cutoff     =     400.0000  Ry
     scf convergence threshold =      1.0E-12
     mixing beta               =       0.7000
     number of iterations used =            8  plain     mixing
     energy convergence thresh.=      1.0E-04
     force convergence thresh. =      1.0E-03
     press convergence thresh. =      5.0E-01
     Exchange-correlation= PBESOL
                           (   1   4  10   8   0   0   0)
     nstep                     =           50


     celldm(1)=   5.550000  celldm(2)=   0.000000  celldm(3)=   0.000000
     celldm(4)=   0.000000  celldm(5)=   0.000000  celldm(6)=   0.000000

     crystal axes: (cart. coord. in units of alat)
               a(1) = (   1.043732   0.000891   0.000000 )  
               a(2) = (  -0.521795   0.901190   0.000000 )  
               a(3) = (   0.000000   0.000000  10.000000 )  

     reciprocal axes: (cart. coord. in units 2 pi/alat)
               b(1) = (  0.957627  0.554472  0.000000 )  
               b(2) = ( -0.000947  1.109096  0.000000 )  
               b(3) = (  0.000000  0.000000  0.100000 )  


     PseudoPot. # 1 for Ta read from file:
     /shared/home/as3359/pseudo/Ta.pbesol-spfn-rrkjus_psl.1.0.0.UPF
     MD5 check sum: f099565ffaca9b150a52e9412a28e20b
     Pseudo is Ultrasoft + core correction, Zval = 27.0
     Generated using &quot;atomic&quot; code by A. Dal Corso  v.6.3
     Using radial grid of 1273 points,  8 beta functions with: 
                l(1) =   0
                l(2) =   0
                l(3) =   1
                l(4) =   1
                l(5) =   2
                l(6) =   2
                l(7) =   3
                l(8) =   3
     Q(r) pseudized with 0 coefficients 


     PseudoPot. # 2 for C  read from file:
     /shared/home/as3359/pseudo/C.pbesol-n-rrkjus_psl.1.0.0.UPF
     MD5 check sum: 05995be603a8a7c99da3dc4413f31573
     Pseudo is Ultrasoft + core correction, Zval =  4.0
     Generated using &quot;atomic&quot; code by A. Dal Corso  v.6.3MaX
     Using radial grid of 1073 points,  4 beta functions with: 
                l(1) =   0
                l(2) =   0
                l(3) =   1
                l(4) =   1
     Q(r) pseudized with 0 coefficients 


     PseudoPot. # 3 for O  read from file:
     /shared/home/as3359/pseudo/O.pbesol-n-rrkjus_psl.1.0.0.UPF
     MD5 check sum: dd9bad2534826f832ffc9296591fc5de
     Pseudo is Ultrasoft + core correction, Zval =  6.0
     Generated using &quot;atomic&quot; code by A. Dal Corso  v.6.3MaX
     Using radial grid of 1095 points,  4 beta functions with: 
                l(1) =   0
                l(2) =   0
                l(3) =   1
                l(4) =   1
     Q(r) pseudized with 0 coefficients 


     atomic species   valence    mass     pseudopotential
        Ta            27.00   180.94788     Ta( 1.00)
        C              4.00    12.01070     C ( 1.00)
        O              6.00    15.99940     O ( 1.00)

     No symmetry found



   Cartesian axes

     site n.     atom                  positions (alat units)
         1           C   tau(   1) = (  -0.1376285   0.0180317   0.0193959  )
         2           Ta  tau(   2) = (   0.3841511   0.3192090  -0.4303689  )
         3           Ta  tau(   3) = (  -0.1376464   0.6197159   0.4272142  )
         4           O   tau(   4) = (   0.3845753   0.3202170   0.8049305  )
         5           O   tau(   5) = (  -0.1374362   0.0185582  -0.8211192  )

     number of k points=    74
                       cart. coord. in units 2pi/alat
        k(    1) = (   0.0000000   0.0000000   0.0000000), wk =   0.0138889
        k(    2) = (  -0.0000789   0.0924246   0.0000000), wk =   0.0277778
        k(    3) = (  -0.0001578   0.1848493   0.0000000), wk =   0.0277778
        k(    4) = (  -0.0002367   0.2772739   0.0000000), wk =   0.0277778
        k(    5) = (  -0.0003157   0.3696985   0.0000000), wk =   0.0277778
        k(    6) = (  -0.0003946   0.4621232   0.0000000), wk =   0.0277778
        k(    7) = (   0.0004735  -0.5545478   0.0000000), wk =   0.0138889
        k(    8) = (   0.0798022   0.0462060   0.0000000), wk =   0.0277778
        k(    9) = (   0.0797233   0.1386307   0.0000000), wk =   0.0277778
        k(   10) = (   0.0796444   0.2310553   0.0000000), wk =   0.0277778
        k(   11) = (   0.0795655   0.3234799   0.0000000), wk =   0.0277778
        k(   12) = (   0.0794866   0.4159046   0.0000000), wk =   0.0277778
        k(   13) = (   0.0794077   0.5083292   0.0000000), wk =   0.0277778
        k(   14) = (   0.0802757  -0.5083418   0.0000000), wk =   0.0277778
        k(   15) = (   0.0801968  -0.4159171   0.0000000), wk =   0.0277778
        k(   16) = (   0.0801179  -0.3234925   0.0000000), wk =   0.0277778
        k(   17) = (   0.0800390  -0.2310679   0.0000000), wk =   0.0277778
        k(   18) = (   0.0799601  -0.1386432   0.0000000), wk =   0.0277778
        k(   19) = (   0.0798811  -0.0462186   0.0000000), wk =   0.0277778
        k(   20) = (   0.1596045   0.0924121   0.0000000), wk =   0.0277778
        k(   21) = (   0.1595256   0.1848367   0.0000000), wk =   0.0277778
        k(   22) = (   0.1594466   0.2772613   0.0000000), wk =   0.0277778
        k(   23) = (   0.1593677   0.3696860   0.0000000), wk =   0.0277778
        k(   24) = (   0.1592888   0.4621106   0.0000000), wk =   0.0277778
        k(   25) = (   0.1592099   0.5545352   0.0000000), wk =   0.0277778
        k(   26) = (   0.1600779  -0.4621357   0.0000000), wk =   0.0277778
        k(   27) = (   0.1599990  -0.3697111   0.0000000), wk =   0.0277778
        k(   28) = (   0.1599201  -0.2772865   0.0000000), wk =   0.0277778
        k(   29) = (   0.1598412  -0.1848618   0.0000000), wk =   0.0277778
        k(   30) = (   0.1597623  -0.0924372   0.0000000), wk =   0.0277778
        k(   31) = (   0.1596834  -0.0000126   0.0000000), wk =   0.0277778
        k(   32) = (   0.2394067   0.1386181   0.0000000), wk =   0.0277778
        k(   33) = (   0.2393278   0.2310427   0.0000000), wk =   0.0277778
        k(   34) = (   0.2392489   0.3234674   0.0000000), wk =   0.0277778
        k(   35) = (   0.2391700   0.4158920   0.0000000), wk =   0.0277778
        k(   36) = (   0.2390910   0.5083166   0.0000000), wk =   0.0277778
        k(   37) = (   0.2390121   0.6007413   0.0000000), wk =   0.0277778
        k(   38) = (   0.2398802  -0.4159297   0.0000000), wk =   0.0277778
        k(   39) = (   0.2398013  -0.3235051   0.0000000), wk =   0.0277778
        k(   40) = (   0.2397223  -0.2310804   0.0000000), wk =   0.0277778
        k(   41) = (   0.2396434  -0.1386558   0.0000000), wk =   0.0277778
        k(   42) = (   0.2395645  -0.0462312   0.0000000), wk =   0.0277778
        k(   43) = (   0.2394856   0.0461935   0.0000000), wk =   0.0277778
        k(   44) = (   0.3192089   0.1848241   0.0000000), wk =   0.0277778
        k(   45) = (   0.3191300   0.2772488   0.0000000), wk =   0.0277778
        k(   46) = (   0.3190511   0.3696734   0.0000000), wk =   0.0277778
        k(   47) = (   0.3189722   0.4620980   0.0000000), wk =   0.0277778
        k(   48) = (   0.3188933   0.5545227   0.0000000), wk =   0.0277778
        k(   49) = (   0.3188144   0.6469473   0.0000000), wk =   0.0277778
        k(   50) = (   0.3196824  -0.3697237   0.0000000), wk =   0.0277778
        k(   51) = (   0.3196035  -0.2772990   0.0000000), wk =   0.0277778
        k(   52) = (   0.3195246  -0.1848744   0.0000000), wk =   0.0277778
        k(   53) = (   0.3194457  -0.0924498   0.0000000), wk =   0.0277778
        k(   54) = (   0.3193668  -0.0000251   0.0000000), wk =   0.0277778
        k(   55) = (   0.3192878   0.0923995   0.0000000), wk =   0.0277778
        k(   56) = (   0.3990112   0.2310302   0.0000000), wk =   0.0277778
        k(   57) = (   0.3989322   0.3234548   0.0000000), wk =   0.0277778
        k(   58) = (   0.3988533   0.4158794   0.0000000), wk =   0.0277778
        k(   59) = (   0.3987744   0.5083041   0.0000000), wk =   0.0277778
        k(   60) = (   0.3986955   0.6007287   0.0000000), wk =   0.0277778
        k(   61) = (   0.3986166   0.6931533   0.0000000), wk =   0.0277778
        k(   62) = (   0.3994846  -0.3235176   0.0000000), wk =   0.0277778
        k(   63) = (   0.3994057  -0.2310930   0.0000000), wk =   0.0277778
        k(   64) = (   0.3993268  -0.1386684   0.0000000), wk =   0.0277778
        k(   65) = (   0.3992479  -0.0462437   0.0000000), wk =   0.0277778
        k(   66) = (   0.3991690   0.0461809   0.0000000), wk =   0.0277778
        k(   67) = (   0.3990901   0.1386055   0.0000000), wk =   0.0277778
        k(   68) = (  -0.4788134  -0.2772362   0.0000000), wk =   0.0138889
        k(   69) = (  -0.4788923  -0.1848116   0.0000000), wk =   0.0277778
        k(   70) = (  -0.4789712  -0.0923869   0.0000000), wk =   0.0277778
        k(   71) = (  -0.4790501   0.0000377   0.0000000), wk =   0.0277778
        k(   72) = (  -0.4791290   0.0924623   0.0000000), wk =   0.0277778
        k(   73) = (  -0.4792080   0.1848870   0.0000000), wk =   0.0277778
        k(   74) = (  -0.4783399  -0.8317840   0.0000000), wk =   0.0138889

     Dense  grid:   217557 G-vectors     FFT dimensions: (  40,  40, 360)

     Smooth grid:   127511 G-vectors     FFT dimensions: (  32,  32, 300)

     Estimated max dynamical RAM per process >       1.36 GB

     Estimated total dynamical RAM >       2.71 GB

     Check: negative core charge=   -0.000001

     Initial potential from superposition of free atoms

     starting charge   69.99841, renormalised to   70.00000

     negative rho (up, down):  2.279E-04 0.000E+00
     Starting wfcs are   46 randomized atomic wfcs

     total cpu time spent up to now is       15.6 secs

     Self-consistent Calculation

     iteration #  1     ecut=    70.00 Ry     beta= 0.70
     Davidson diagonalization with overlap
     ethr =  1.00E-02,  avg # of iterations =  2.0

     negative rho (up, down):  6.877E-07 0.000E+00

     total cpu time spent up to now is       29.3 secs

     total energy              =   -1437.37765730 Ry
     estimated scf accuracy    <       1.65631403 Ry

     iteration #  2     ecut=    70.00 Ry     beta= 0.70
     Davidson diagonalization with overlap
     ethr =  2.37E-03,  avg # of iterations = 11.9

     negative rho (up, down):  4.784E-06 0.000E+00

     total cpu time spent up to now is       54.9 secs

     total energy              =   -1435.46178972 Ry
     estimated scf accuracy    <      18.89190676 Ry

     iteration #  3     ecut=    70.00 Ry     beta= 0.70
     Davidson diagonalization with overlap
     c_bands:  2 eigenvalues not converged
     c_bands:  1 eigenvalues not converged
     c_bands:  1 eigenvalues not converged
     c_bands:  2 eigenvalues not converged
     c_bands:  2 eigenvalues not converged
     c_bands:  1 eigenvalues not converged
     c_bands:  2 eigenvalues not converged
     c_bands:  2 eigenvalues not converged
     ethr =  2.37E-03,  avg # of iterations = 15.8

     negative rho (up, down):  3.466E-06 0.000E+00

     total cpu time spent up to now is       85.6 secs

     total energy              =   -1434.19583622 Ry
     estimated scf accuracy    <      82.63427372 Ry

     iteration #  4     ecut=    70.00 Ry     beta= 0.70
     Davidson diagonalization with overlap
     ethr =  2.37E-03,  avg # of iterations =  9.5

     negative rho (up, down):  4.695E-06 0.000E+00

     total cpu time spent up to now is      110.0 secs

     total energy              =   -1438.23909085 Ry
     estimated scf accuracy    <       1.12988209 Ry

     iteration #  5     ecut=    70.00 Ry     beta= 0.70
     Davidson diagonalization with overlap
     ethr =  1.61E-03,  avg # of iterations =  2.5

     negative rho (up, down):  2.763E-05 0.000E+00

     total cpu time spent up to now is      124.4 secs

     total energy              =   -1438.25621781 Ry
     estimated scf accuracy    <       0.35866315 Ry

     iteration #  6     ecut=    70.00 Ry     beta= 0.70
     Davidson diagonalization with overlap
     ethr =  5.12E-04,  avg # of iterations =  6.6

     negative rho (up, down):  4.368E-05 0.000E+00

     total cpu time spent up to now is      143.3 secs

     total energy              =   -1438.35159784 Ry
     estimated scf accuracy    <       0.02953650 Ry

     iteration #  7     ecut=    70.00 Ry     beta= 0.70
     Davidson diagonalization with overlap
     ethr =  4.22E-05,  avg # of iterations =  6.8

     negative rho (up, down):  9.421E-05 0.000E+00

     total cpu time spent up to now is      160.7 secs

     total energy              =   -1438.35243490 Ry
     estimated scf accuracy    <       0.01673932 Ry

     iteration #  8     ecut=    70.00 Ry     beta= 0.70
     Davidson diagonalization with overlap
     ethr =  2.39E-05,  avg # of iterations =  7.1

     negative rho (up, down):  2.824E-04 0.000E+00

     total cpu time spent up to now is      181.8 secs

     total energy              =   -1438.36777019 Ry
     estimated scf accuracy    <       0.04461015 Ry

     iteration #  9     ecut=    70.00 Ry     beta= 0.70
     Davidson diagonalization with overlap
     ethr =  2.39E-05,  avg # of iterations =  4.6

     negative rho (up, down):  3.188E-04 0.000E+00

     total cpu time spent up to now is      197.5 secs

     total energy              =   -1438.35234684 Ry
     estimated scf accuracy    <       0.06896707 Ry

     iteration # 10     ecut=    70.00 Ry     beta= 0.70
     Davidson diagonalization with overlap
     ethr =  2.39E-05,  avg # of iterations =  6.1

     negative rho (up, down):  2.861E-04 0.000E+00

     total cpu time spent up to now is      215.1 secs

     total energy              =   -1438.35464033 Ry
     estimated scf accuracy    <       0.01324501 Ry

     iteration # 11     ecut=    70.00 Ry     beta= 0.70
     Davidson diagonalization with overlap
     ethr =  1.89E-05,  avg # of iterations =  2.5

     negative rho (up, down):  3.235E-04 0.000E+00

     total cpu time spent up to now is      229.1 secs

     total energy              =   -1438.35426402 Ry
     estimated scf accuracy    <       0.00631307 Ry

     iteration # 12     ecut=    70.00 Ry     beta= 0.70
     Davidson diagonalization with overlap
     ethr =  9.02E-06,  avg # of iterations =  6.4

     negative rho (up, down):  3.186E-04 0.000E+00

     total cpu time spent up to now is      247.4 secs

     total energy              =   -1438.35600003 Ry
     estimated scf accuracy    <       0.00045830 Ry

     iteration # 13     ecut=    70.00 Ry     beta= 0.70
     Davidson diagonalization with overlap
     c_bands:  1 eigenvalues not converged
     ethr =  6.55E-07,  avg # of iterations =  7.2

     negative rho (up, down):  3.101E-04 0.000E+00

     total cpu time spent up to now is      266.7 secs

     total energy              =   -1438.35616535 Ry
     estimated scf accuracy    <       0.00060101 Ry

     iteration # 14     ecut=    70.00 Ry     beta= 0.70
     Davidson diagonalization with overlap
     ethr =  6.55E-07,  avg # of iterations =  2.2

     negative rho (up, down):  3.034E-04 0.000E+00

     total cpu time spent up to now is      280.6 secs

     total energy              =   -1438.35622780 Ry
     estimated scf accuracy    <       0.00040531 Ry

     iteration # 15     ecut=    70.00 Ry     beta= 0.70
     Davidson diagonalization with overlap
     ethr =  5.79E-07,  avg # of iterations =  4.2

     negative rho (up, down):  3.193E-04 0.000E+00

     total cpu time spent up to now is      296.0 secs

     total energy              =   -1438.35659426 Ry
     estimated scf accuracy    <       0.00057918 Ry

     iteration # 16     ecut=    70.00 Ry     beta= 0.70
     Davidson diagonalization with overlap
     ethr =  5.79E-07,  avg # of iterations =  6.5

     negative rho (up, down):  3.196E-04 0.000E+00

     total cpu time spent up to now is      316.4 secs

     total energy              =   -1438.35732954 Ry
     estimated scf accuracy    <       0.00368519 Ry

     iteration # 17     ecut=    70.00 Ry     beta= 0.70
     Davidson diagonalization with overlap
     ethr =  5.79E-07,  avg # of iterations =  6.8

     negative rho (up, down):  3.248E-04 0.000E+00

     total cpu time spent up to now is      335.2 secs

     total energy              =   -1438.35557679 Ry
     estimated scf accuracy    <       0.00737239 Ry

     iteration # 18     ecut=    70.00 Ry     beta= 0.70
     Davidson diagonalization with overlap
     ethr =  5.79E-07,  avg # of iterations =  8.4

     negative rho (up, down):  3.280E-04 0.000E+00

     total cpu time spent up to now is      359.7 secs

     total energy              =   -1438.35599305 Ry
     estimated scf accuracy    <       0.00062744 Ry

     iteration # 19     ecut=    70.00 Ry     beta= 0.70
     Davidson diagonalization with overlap
     ethr =  5.79E-07,  avg # of iterations =  6.6

     negative rho (up, down):  3.259E-04 0.000E+00

     total cpu time spent up to now is      380.1 secs

     total energy              =   -1438.35610175 Ry
     estimated scf accuracy    <       0.00031113 Ry

     iteration # 20     ecut=    70.00 Ry     beta= 0.70
     Davidson diagonalization with overlap
     ethr =  4.44E-07,  avg # of iterations =  5.3

     negative rho (up, down):  3.264E-04 0.000E+00

     total cpu time spent up to now is      396.3 secs

     total energy              =   -1438.35614326 Ry
     estimated scf accuracy    <       0.00001892 Ry

     iteration # 21     ecut=    70.00 Ry     beta= 0.70
     Davidson diagonalization with overlap
     ethr =  2.70E-08,  avg # of iterations = 11.6

     negative rho (up, down):  3.258E-04 0.000E+00

     total cpu time spent up to now is      422.5 secs

     total energy              =   -1438.35615267 Ry
     estimated scf accuracy    <       0.00012171 Ry

     iteration # 22     ecut=    70.00 Ry     beta= 0.70
     Davidson diagonalization with overlap
     ethr =  2.70E-08,  avg # of iterations =  6.8

     negative rho (up, down):  3.261E-04 0.000E+00

     total cpu time spent up to now is      443.7 secs

     total energy              =   -1438.35616424 Ry
     estimated scf accuracy    <       0.00000832 Ry

     iteration # 23     ecut=    70.00 Ry     beta= 0.70
     Davidson diagonalization with overlap
     c_bands:  1 eigenvalues not converged
     ethr =  1.19E-08,  avg # of iterations =  7.1

     negative rho (up, down):  3.264E-04 0.000E+00

     total cpu time spent up to now is      462.2 secs

     total energy              =   -1438.35616680 Ry
     estimated scf accuracy    <       0.00000210 Ry

     iteration # 24     ecut=    70.00 Ry     beta= 0.70
     Davidson diagonalization with overlap
     ethr =  3.00E-09,  avg # of iterations =  7.0

     negative rho (up, down):  3.262E-04 0.000E+00

     total cpu time spent up to now is      480.3 secs

     total energy              =   -1438.35616650 Ry
     estimated scf accuracy    <       0.00000580 Ry

     iteration # 25     ecut=    70.00 Ry     beta= 0.70
     Davidson diagonalization with overlap
     ethr =  3.00E-09,  avg # of iterations =  2.0

     negative rho (up, down):  3.262E-04 0.000E+00

     total cpu time spent up to now is      494.2 secs

     total energy              =   -1438.35616608 Ry
     estimated scf accuracy    <       0.00000363 Ry

     iteration # 26     ecut=    70.00 Ry     beta= 0.70
     Davidson diagonalization with overlap
     ethr =  3.00E-09,  avg # of iterations =  2.6

     negative rho (up, down):  3.262E-04 0.000E+00

     total cpu time spent up to now is      508.5 secs

     total energy              =   -1438.35616609 Ry
     estimated scf accuracy    <       0.00000184 Ry

     iteration # 27     ecut=    70.00 Ry     beta= 0.70
     Davidson diagonalization with overlap
     ethr =  2.63E-09,  avg # of iterations =  4.1

     negative rho (up, down):  3.262E-04 0.000E+00

     total cpu time spent up to now is      523.6 secs

     total energy              =   -1438.35616617 Ry
     estimated scf accuracy    <       0.00000073 Ry

     iteration # 28     ecut=    70.00 Ry     beta= 0.70
     Davidson diagonalization with overlap
     ethr =  1.04E-09,  avg # of iterations =  5.6

     negative rho (up, down):  3.261E-04 0.000E+00

     total cpu time spent up to now is      541.3 secs

     total energy              =   -1438.35616633 Ry
     estimated scf accuracy    <       0.00000010 Ry

     iteration # 29     ecut=    70.00 Ry     beta= 0.70
     Davidson diagonalization with overlap
     ethr =  1.40E-10,  avg # of iterations =  4.6

     negative rho (up, down):  3.261E-04 0.000E+00

     total cpu time spent up to now is      557.4 secs

     total energy              =   -1438.35616635 Ry
     estimated scf accuracy    <       0.00000004 Ry

     iteration # 30     ecut=    70.00 Ry     beta= 0.70
     Davidson diagonalization with overlap
     ethr =  5.35E-11,  avg # of iterations =  7.4

     negative rho (up, down):  3.261E-04 0.000E+00

     total cpu time spent up to now is      574.1 secs

     total energy              =   -1438.35616635 Ry
     estimated scf accuracy    <          4.3E-09 Ry

     iteration # 31     ecut=    70.00 Ry     beta= 0.70
     Davidson diagonalization with overlap
     c_bands:  1 eigenvalues not converged
     ethr =  6.13E-12,  avg # of iterations =  8.8

     negative rho (up, down):  3.261E-04 0.000E+00

     total cpu time spent up to now is      596.0 secs

     total energy              =   -1438.35616636 Ry
     estimated scf accuracy    <          9.9E-09 Ry

     iteration # 32     ecut=    70.00 Ry     beta= 0.70
     Davidson diagonalization with overlap
     ethr =  6.13E-12,  avg # of iterations =  2.2

     negative rho (up, down):  3.261E-04 0.000E+00

     total cpu time spent up to now is      609.9 secs

     total energy              =   -1438.35616635 Ry
     estimated scf accuracy    <       0.00000001 Ry

     iteration # 33     ecut=    70.00 Ry     beta= 0.70
     Davidson diagonalization with overlap
     ethr =  6.13E-12,  avg # of iterations =  2.9

     negative rho (up, down):  3.261E-04 0.000E+00

     total cpu time spent up to now is      623.7 secs

     total energy              =   -1438.35616635 Ry
     estimated scf accuracy    <          6.3E-09 Ry

     iteration # 34     ecut=    70.00 Ry     beta= 0.70
     Davidson diagonalization with overlap
     ethr =  6.13E-12,  avg # of iterations =  2.5

     negative rho (up, down):  3.261E-04 0.000E+00

     total cpu time spent up to now is      637.3 secs

     total energy              =   -1438.35616635 Ry
     estimated scf accuracy    <          3.6E-09 Ry

     iteration # 35     ecut=    70.00 Ry     beta= 0.70
     Davidson diagonalization with overlap
     ethr =  5.19E-12,  avg # of iterations =  9.3

     negative rho (up, down):  3.261E-04 0.000E+00

     total cpu time spent up to now is      654.4 secs

     total energy              =   -1438.35616635 Ry
     estimated scf accuracy    <          1.5E-09 Ry

     iteration # 36     ecut=    70.00 Ry     beta= 0.70
     Davidson diagonalization with overlap
     ethr =  2.17E-12,  avg # of iterations =  2.5

     negative rho (up, down):  3.261E-04 0.000E+00

     total cpu time spent up to now is      668.4 secs

     total energy              =   -1438.35616635 Ry
     estimated scf accuracy    <          1.1E-09 Ry

     iteration # 37     ecut=    70.00 Ry     beta= 0.70
     Davidson diagonalization with overlap
     ethr =  1.62E-12,  avg # of iterations =  7.5

     negative rho (up, down):  3.261E-04 0.000E+00

     total cpu time spent up to now is      684.8 secs

     total energy              =   -1438.35616635 Ry
     estimated scf accuracy    <          1.4E-10 Ry

     iteration # 38     ecut=    70.00 Ry     beta= 0.70
     Davidson diagonalization with overlap
     c_bands:  1 eigenvalues not converged
     ethr =  1.97E-13,  avg # of iterations =  7.9

     negative rho (up, down):  3.261E-04 0.000E+00

     total cpu time spent up to now is      705.8 secs

     total energy              =   -1438.35616635 Ry
     estimated scf accuracy    <          1.4E-10 Ry

     iteration # 39     ecut=    70.00 Ry     beta= 0.70
     Davidson diagonalization with overlap
     ethr =  1.97E-13,  avg # of iterations =  1.9

     negative rho (up, down):  3.261E-04 0.000E+00

     total cpu time spent up to now is      719.2 secs

     total energy              =   -1438.35616635 Ry
     estimated scf accuracy    <          8.4E-11 Ry

     iteration # 40     ecut=    70.00 Ry     beta= 0.70
     Davidson diagonalization with overlap
     ethr =  1.19E-13,  avg # of iterations =  9.3

     negative rho (up, down):  3.261E-04 0.000E+00

     total cpu time spent up to now is      740.1 secs

     total energy              =   -1438.35616635 Ry
     estimated scf accuracy    <          3.4E-10 Ry

     iteration # 41     ecut=    70.00 Ry     beta= 0.70
     Davidson diagonalization with overlap
     ethr =  1.19E-13,  avg # of iterations =  2.1

     negative rho (up, down):  3.261E-04 0.000E+00

     total cpu time spent up to now is      753.5 secs

     total energy              =   -1438.35616635 Ry
     estimated scf accuracy    <          2.4E-10 Ry

     iteration # 42     ecut=    70.00 Ry     beta= 0.70
     Davidson diagonalization with overlap
     ethr =  1.19E-13,  avg # of iterations =  2.0

     negative rho (up, down):  3.261E-04 0.000E+00

     total cpu time spent up to now is      766.9 secs

     total energy              =   -1438.35616635 Ry
     estimated scf accuracy    <          1.8E-10 Ry

     iteration # 43     ecut=    70.00 Ry     beta= 0.70
     Davidson diagonalization with overlap
     ethr =  1.19E-13,  avg # of iterations =  2.8

     negative rho (up, down):  3.261E-04 0.000E+00

     total cpu time spent up to now is      780.6 secs

     total energy              =   -1438.35616635 Ry
     estimated scf accuracy    <          1.3E-10 Ry

     iteration # 44     ecut=    70.00 Ry     beta= 0.70
     Davidson diagonalization with overlap
     ethr =  1.19E-13,  avg # of iterations =  1.5

     negative rho (up, down):  3.261E-04 0.000E+00

     total cpu time spent up to now is      793.5 secs

     total energy              =   -1438.35616635 Ry
     estimated scf accuracy    <          1.5E-10 Ry

     iteration # 45     ecut=    70.00 Ry     beta= 0.70
     Davidson diagonalization with overlap
     ethr =  1.19E-13,  avg # of iterations =  2.0

     negative rho (up, down):  3.261E-04 0.000E+00

     total cpu time spent up to now is      807.2 secs

     total energy              =   -1438.35616635 Ry
     estimated scf accuracy    <          2.1E-10 Ry

     iteration # 46     ecut=    70.00 Ry     beta= 0.70
     Davidson diagonalization with overlap
     ethr =  1.19E-13,  avg # of iterations =  2.9

     negative rho (up, down):  3.261E-04 0.000E+00

     total cpu time spent up to now is      821.0 secs

     total energy              =   -1438.35616635 Ry
     estimated scf accuracy    <          3.3E-10 Ry

     iteration # 47     ecut=    70.00 Ry     beta= 0.70
     Davidson diagonalization with overlap
     ethr =  1.19E-13,  avg # of iterations =  3.5

     negative rho (up, down):  3.261E-04 0.000E+00

     total cpu time spent up to now is      835.5 secs

     total energy              =   -1438.35616635 Ry
     estimated scf accuracy    <          2.2E-10 Ry

     iteration # 48     ecut=    70.00 Ry     beta= 0.70
     Davidson diagonalization with overlap
     ethr =  1.19E-13,  avg # of iterations =  8.8

     negative rho (up, down):  3.261E-04 0.000E+00

     total cpu time spent up to now is      852.8 secs

     total energy              =   -1438.35616635 Ry
     estimated scf accuracy    <          1.5E-11 Ry

     iteration # 49     ecut=    70.00 Ry     beta= 0.70
     Davidson diagonalization with overlap
     ethr =  1.00E-13,  avg # of iterations =  1.8

     negative rho (up, down):  3.261E-04 0.000E+00

     total cpu time spent up to now is      866.1 secs

     total energy              =   -1438.35616635 Ry
     estimated scf accuracy    <          1.0E-11 Ry

     iteration # 50     ecut=    70.00 Ry     beta= 0.70
     Davidson diagonalization with overlap
     ethr =  1.00E-13,  avg # of iterations =  1.8

     negative rho (up, down):  3.261E-04 0.000E+00

     total cpu time spent up to now is      879.4 secs

     total energy              =   -1438.35616635 Ry
     estimated scf accuracy    <          3.8E-12 Ry

     iteration # 51     ecut=    70.00 Ry     beta= 0.70
     Davidson diagonalization with overlap
     ethr =  1.00E-13,  avg # of iterations =  1.2

     negative rho (up, down):  3.261E-04 0.000E+00

     total cpu time spent up to now is      892.1 secs

     total energy              =   -1438.35616635 Ry
     estimated scf accuracy    <          2.2E-12 Ry

     iteration # 52     ecut=    70.00 Ry     beta= 0.70
     Davidson diagonalization with overlap
     ethr =  1.00E-13,  avg # of iterations =  1.1

     negative rho (up, down):  3.261E-04 0.000E+00

     total cpu time spent up to now is      904.7 secs

     total energy              =   -1438.35616635 Ry
     estimated scf accuracy    <          2.0E-12 Ry

     iteration # 53     ecut=    70.00 Ry     beta= 0.70
     Davidson diagonalization with overlap
     ethr =  1.00E-13,  avg # of iterations =  1.0

     negative rho (up, down):  3.261E-04 0.000E+00

     total cpu time spent up to now is      917.3 secs

     total energy              =   -1438.35616635 Ry
     estimated scf accuracy    <          2.0E-12 Ry

     iteration # 54     ecut=    70.00 Ry     beta= 0.70
     Davidson diagonalization with overlap
     ethr =  1.00E-13,  avg # of iterations =  1.0

     negative rho (up, down):  3.261E-04 0.000E+00

     total cpu time spent up to now is      929.9 secs

     total energy              =   -1438.35616635 Ry
     estimated scf accuracy    <          1.6E-12 Ry

     iteration # 55     ecut=    70.00 Ry     beta= 0.70
     Davidson diagonalization with overlap
     ethr =  1.00E-13,  avg # of iterations =  1.0

     negative rho (up, down):  3.261E-04 0.000E+00

     total cpu time spent up to now is      942.4 secs

     End of self-consistent calculation

          k = 0.0000 0.0000 0.0000 ( 16009 PWs)   bands (ev):

   -69.7076 -68.9109 -36.4039 -35.9371 -35.9363 -35.5203 -35.1029 -35.0990
   -21.4263 -21.2872 -21.2782 -21.2774 -21.2580 -21.2555 -21.2328 -20.6433
   -20.5314 -20.5193 -20.5191 -20.5077 -20.5073 -20.4529 -20.0755 -19.1762
   -13.1461  -8.3425  -6.6580  -6.6318  -5.6359  -5.1213  -5.1008  -3.1318
    -3.1132  -2.7785  -0.2691

          k =-0.0001 0.0924 0.0000 ( 15993 PWs)   bands (ev):

   -69.7044 -68.9079 -36.3907 -35.9957 -35.9483 -35.5112 -35.1516 -35.1139
   -21.4187 -21.2858 -21.2788 -21.2767 -21.2596 -21.2558 -21.2358 -20.6353
   -20.5292 -20.5194 -20.5179 -20.5090 -20.5081 -20.4558 -20.0241 -19.1344
   -13.1325  -8.2086  -6.7641  -6.5723  -5.6047  -5.1317  -5.0567  -3.5672
    -3.3643  -2.7031  -0.4965

          k =-0.0002 0.1848 0.0000 ( 15937 PWs)   bands (ev):

   -69.6956 -68.8994 -36.3550 -36.1497 -35.9807 -35.4913 -35.2903 -35.1443
   -21.3995 -21.2826 -21.2805 -21.2728 -21.2639 -21.2573 -21.2432 -20.6168
   -20.5239 -20.5186 -20.5141 -20.5133 -20.5092 -20.4635 -19.8987 -19.0266
   -13.0696  -7.8729  -6.9178  -6.3685  -5.8672  -5.0313  -4.9121  -4.4159
    -3.7917  -2.6872  -0.9907

          k =-0.0002 0.2773 0.0000 ( 15895 PWs)   bands (ev):

   -69.6837 -68.8879 -36.3552 -36.3025 -36.0247 -35.5040 -35.4358 -35.1856
   -21.3769 -21.2819 -21.2757 -21.2693 -21.2677 -21.2621 -21.2498 -20.5987
   -20.5214 -20.5187 -20.5113 -20.5097 -20.5087 -20.4733 -19.7646 -18.8961
   -12.9114  -7.6615  -6.7756  -6.2909  -6.1878  -5.4317  -4.8483  -4.6413
    -3.9737  -2.8682  -1.4602

          k =-0.0003 0.3697 0.0000 ( 15863 PWs)   bands (ev):

   -69.6717 -68.8763 -36.5458 -36.2599 -36.0683 -35.6597 -35.4301 -35.2265
   -21.3599 -21.2781 -21.2722 -21.2707 -21.2690 -21.2631 -21.2516 -20.5878
   -20.5253 -20.5167 -20.5139 -20.5035 -20.4966 -20.4820 -19.6735 -18.7880
   -12.6441  -7.9483  -6.7023  -6.2560  -6.1640  -5.6610  -4.9195  -4.8005
    -3.7726  -3.0293  -1.7272

          k =-0.0004 0.4621 0.0000 ( 15908 PWs)   bands (ev):

   -69.6630 -68.8678 -36.6828 -36.2324 -36.1000 -35.7758 -35.4149 -35.2562
   -21.3521 -21.2800 -21.2780 -21.2667 -21.2612 -21.2604 -21.2508 -20.5838
   -20.5293 -20.5165 -20.5128 -20.4996 -20.4875 -20.4851 -19.6332 -18.7245
   -12.3474  -8.4737  -6.6141  -6.2430  -6.1222  -5.5728  -5.0632  -4.9679
    -3.4985  -3.0781  -1.7748

          k = 0.0005-0.5545 0.0000 ( 15918 PWs)   bands (ev):

   -69.6598 -68.8647 -36.7321 -36.2246 -36.1116 -35.8152 -35.4093 -35.2671
   -21.3502 -21.2813 -21.2805 -21.2648 -21.2602 -21.2558 -21.2502 -20.5830
   -20.5307 -20.5176 -20.5111 -20.4982 -20.4892 -20.4806 -19.6237 -18.7046
   -12.2065  -8.7176  -6.5175  -6.2868  -6.0714  -5.6111  -5.1484  -4.9813
    -3.3821  -3.0643  -1.7647

          k = 0.0798 0.0462 0.0000 ( 15991 PWs)   bands (ev):

   -69.7044 -68.9079 -36.3908 -35.9947 -35.9487 -35.5113 -35.1546 -35.1103
   -21.4186 -21.2863 -21.2789 -21.2761 -21.2586 -21.2568 -21.2358 -20.6353
   -20.5292 -20.5196 -20.5178 -20.5093 -20.5078 -20.4558 -20.0244 -19.1347
   -13.1330  -8.2096  -6.7816  -6.5502  -5.6096  -5.1439  -5.0397  -3.5843
    -3.3458  -2.7046  -0.5151

          k = 0.0797 0.1386 0.0000 ( 15946 PWs)   bands (ev):

   -69.6985 -68.9021 -36.3663 -36.0982 -35.9735 -35.4969 -35.2457 -35.1354
   -21.4052 -21.2844 -21.2798 -21.2737 -21.2620 -21.2572 -21.2411 -20.6221
   -20.5253 -20.5196 -20.5151 -20.5121 -20.5087 -20.4611 -19.9360 -19.0599
   -13.0945  -7.9643  -6.9100  -6.4283  -5.7591  -5.0409  -4.9499  -4.1166
    -3.8092  -2.6704  -0.7220

          k = 0.0796 0.2311 0.0000 ( 15915 PWs)   bands (ev):

   -69.6881 -68.8922 -36.3253 -36.2666 -36.0195 -35.4821 -35.3914 -35.1790
   -21.3843 -21.2829 -21.2784 -21.2689 -21.2672 -21.2591 -21.2490 -20.6042
   -20.5221 -20.5170 -20.5143 -20.5107 -20.5098 -20.4700 -19.8069 -18.9406
   -12.9808  -7.6094  -6.9432  -6.3987  -5.9799  -5.1624  -4.8735  -4.5307
    -4.2196  -2.7950  -1.1058

          k = 0.0796 0.3235 0.0000 ( 15897 PWs)   bands (ev):

   -69.6762 -68.8806 -36.4568 -36.2758 -36.0725 -35.5837 -35.4357 -35.2286
   -21.3644 -21.2803 -21.2734 -21.2718 -21.2659 -21.2639 -21.2529 -20.5903
   -20.5231 -20.5191 -20.5128 -20.5053 -20.5018 -20.4795 -19.6962 -18.8221
   -12.7599  -7.6121  -6.7890  -6.5127  -5.9619  -5.6524  -5.0058  -4.5285
    -4.1483  -2.9875  -1.4564

          k = 0.0795 0.4159 0.0000 ( 15919 PWs)   bands (ev):

   -69.6658 -68.8706 -36.6142 -36.2389 -36.1178 -35.7191 -35.4192 -35.2708
   -21.3523 -21.2788 -21.2747 -21.2707 -21.2652 -21.2615 -21.2526 -20.5834
   -20.5273 -20.5156 -20.5154 -20.5013 -20.4895 -20.4862 -19.6328 -18.7381
   -12.4644  -8.0940  -6.7880  -6.3250  -5.9407  -5.6516  -5.2590  -4.6188
    -3.9559  -3.0251  -1.5857

          k = 0.0794 0.5083 0.0000 ( 15893 PWs)   bands (ev):

   -69.6598 -68.8648 -36.7033 -36.2213 -36.1438 -35.7929 -35.4086 -35.2949
   -21.3480 -21.2805 -21.2799 -21.2659 -21.2615 -21.2570 -21.2522 -20.5813
   -20.5298 -20.5176 -20.5123 -20.4993 -20.4906 -20.4804 -19.6094 -18.6979
   -12.2288  -8.5164  -6.7310  -6.2369  -5.9219  -5.5707  -5.4379  -4.7100
    -3.8252  -2.9727  -1.5694

          k = 0.0803-0.5083 0.0000 ( 15893 PWs)   bands (ev):

   -69.6598 -68.8648 -36.7037 -36.2215 -36.1434 -35.7932 -35.4086 -35.2949
   -21.3480 -21.2811 -21.2793 -21.2655 -21.2621 -21.2572 -21.2519 -20.5814
   -20.5298 -20.5176 -20.5123 -20.4993 -20.4906 -20.4804 -19.6094 -18.6978
   -12.2287  -8.5169  -6.7302  -6.2386  -5.9227  -5.5696  -5.4385  -4.7099
    -3.8251  -2.9730  -1.5698

          k = 0.0802-0.4159 0.0000 ( 15909 PWs)   bands (ev):

   -69.6658 -68.8705 -36.6152 -36.2392 -36.1169 -35.7197 -35.4191 -35.2707
   -21.3524 -21.2791 -21.2748 -21.2702 -21.2656 -21.2614 -21.2524 -20.5835
   -20.5273 -20.5157 -20.5154 -20.5012 -20.4895 -20.4862 -19.6327 -18.7380
   -12.4641  -8.0951  -6.7872  -6.3281  -5.9408  -5.6510  -5.2600  -4.6188
    -3.9553  -3.0261  -1.5865

          k = 0.0801-0.3235 0.0000 ( 15899 PWs)   bands (ev):

   -69.6761 -68.8805 -36.4582 -36.2760 -36.0715 -35.5844 -35.4356 -35.2285
   -21.3645 -21.2803 -21.2735 -21.2719 -21.2660 -21.2635 -21.2529 -20.5903
   -20.5230 -20.5192 -20.5129 -20.5052 -20.5018 -20.4795 -19.6959 -18.8219
   -12.7594  -7.6129  -6.7899  -6.5132  -5.9627  -5.6532  -5.0061  -4.5296
    -4.1477  -2.9882  -1.4571

          k = 0.0800-0.2311 0.0000 ( 15913 PWs)   bands (ev):

   -69.6881 -68.8921 -36.3251 -36.2682 -36.0186 -35.4821 -35.3916 -35.1794
   -21.3845 -21.2829 -21.2779 -21.2694 -21.2678 -21.2583 -21.2491 -20.6043
   -20.5221 -20.5170 -20.5143 -20.5107 -20.5098 -20.4700 -19.8066 -18.9404
   -12.9802  -7.6093  -6.9425  -6.4003  -5.9805  -5.1646  -4.8741  -4.5317
    -4.2195  -2.7943  -1.1060

          k = 0.0800-0.1386 0.0000 ( 15948 PWs)   bands (ev):

   -69.6984 -68.9021 -36.3662 -36.0993 -35.9729 -35.4968 -35.2451 -35.1366
   -21.4053 -21.2838 -21.2802 -21.2739 -21.2626 -21.2565 -21.2412 -20.6222
   -20.5253 -20.5196 -20.5151 -20.5121 -20.5088 -20.4611 -19.9358 -19.0597
   -13.0939  -7.9636  -6.9065  -6.4345  -5.7570  -5.0410  -4.9538  -4.1122
    -3.8141  -2.6689  -0.7184

          k = 0.0799-0.0462 0.0000 ( 15991 PWs)   bands (ev):

   -69.7044 -68.9079 -36.3908 -35.9951 -35.9485 -35.5113 -35.1534 -35.1118
   -21.4187 -21.2860 -21.2793 -21.2760 -21.2590 -21.2564 -21.2358 -20.6353
   -20.5292 -20.5195 -20.5178 -20.5093 -20.5078 -20.4558 -20.0243 -19.1346
   -13.1328  -8.2092  -6.7757  -6.5579  -5.6079  -5.1402  -5.0455  -3.5766
    -3.3540  -2.7038  -0.5078

          k = 0.1596 0.0924 0.0000 ( 15929 PWs)   bands (ev):

   -69.6958 -68.8996 -36.3551 -36.1481 -35.9805 -35.4916 -35.2922 -35.1402
   -21.3992 -21.2854 -21.2785 -21.2721 -21.2619 -21.2590 -21.2434 -20.6168
   -20.5239 -20.5188 -20.5140 -20.5136 -20.5089 -20.4633 -19.8995 -19.0274
   -13.0715  -7.8762  -6.9281  -6.3471  -5.8750  -5.0384  -4.8965  -4.4284
    -3.7694  -2.6925  -1.0035

          k = 0.1595 0.1848 0.0000 ( 15915 PWs)   bands (ev):

   -69.6883 -68.8923 -36.3245 -36.2670 -36.0186 -35.4825 -35.3923 -35.1764
   -21.3841 -21.2847 -21.2767 -21.2689 -21.2665 -21.2589 -21.2497 -20.6042
   -20.5221 -20.5171 -20.5144 -20.5107 -20.5097 -20.4698 -19.8074 -18.9412
   -12.9823  -7.6120  -6.9471  -6.3938  -5.9783  -5.1671  -4.8692  -4.5334
    -4.2035  -2.7990  -1.1134

          k = 0.1594 0.2773 0.0000 ( 15920 PWs)   bands (ev):

   -69.6779 -68.8823 -36.4091 -36.2833 -36.0872 -35.5462 -35.4356 -35.2400
   -21.3657 -21.2828 -21.2736 -21.2721 -21.2647 -21.2600 -21.2567 -20.5910
   -20.5223 -20.5203 -20.5126 -20.5058 -20.5037 -20.4786 -19.7031 -18.8343
   -12.7992  -7.2812  -7.0032  -6.6604  -5.9101  -5.5137  -4.9776  -4.6157
    -4.2741  -3.0120  -1.2116

          k = 0.1594 0.3697 0.0000 ( 15902 PWs)   bands (ev):

   -69.6676 -68.8723 -36.5404 -36.2444 -36.1618 -35.6583 -35.4205 -35.3092
   -21.3507 -21.2790 -21.2764 -21.2695 -21.2668 -21.2631 -21.2554 -20.5820
   -20.5255 -20.5188 -20.5150 -20.5023 -20.4919 -20.4864 -19.6237 -18.7421
   -12.5334  -7.5344  -6.9935  -6.4633  -6.0246  -5.6985  -5.1754  -4.5851
    -4.1904  -3.1468  -1.2923

          k = 0.1593 0.4621 0.0000 ( 15899 PWs)   bands (ev):

   -69.6599 -68.8649 -36.6324 -36.2274 -36.2087 -35.7377 -35.4075 -35.3607
   -21.3428 -21.2804 -21.2764 -21.2709 -21.2635 -21.2609 -21.2545 -20.5777
   -20.5277 -20.5177 -20.5155 -20.5010 -20.4934 -20.4803 -19.5808 -18.6845
   -12.2718  -7.9997  -6.9140  -6.4241  -5.8927  -5.6178  -5.3630  -4.5191
    -4.3408  -3.0984  -1.2197

          k = 0.1592 0.5545 0.0000 ( 15912 PWs)   bands (ev):

   -69.6571 -68.8622 -36.6660 -36.2424 -36.2052 -35.7658 -35.4034 -35.3787
   -21.3406 -21.2815 -21.2787 -21.2672 -21.2643 -21.2576 -21.2549 -20.5766
   -20.5284 -20.5190 -20.5137 -20.5010 -20.4952 -20.4764 -19.5683 -18.6655
   -12.1573  -8.1956  -6.9136  -6.3852  -5.8065  -5.5589  -5.4629  -4.4728
    -4.4511  -3.0522  -1.1553

          k = 0.1601-0.4621 0.0000 ( 15899 PWs)   bands (ev):

   -69.6599 -68.8648 -36.6339 -36.2294 -36.2057 -35.7385 -35.4074 -35.3604
   -21.3429 -21.2811 -21.2759 -21.2703 -21.2642 -21.2613 -21.2536 -20.5778
   -20.5277 -20.5177 -20.5156 -20.5009 -20.4934 -20.4802 -19.5807 -18.6843
   -12.2713  -8.0013  -6.9136  -6.4266  -5.8937  -5.6192  -5.3629  -4.5199
    -4.3389  -3.0991  -1.2215

          k = 0.1600-0.3697 0.0000 ( 15906 PWs)   bands (ev):

   -69.6674 -68.8722 -36.5428 -36.2452 -36.1596 -35.6595 -35.4204 -35.3091
   -21.3509 -21.2788 -21.2773 -21.2689 -21.2667 -21.2636 -21.2549 -20.5821
   -20.5254 -20.5189 -20.5151 -20.5022 -20.4918 -20.4864 -19.6234 -18.7418
   -12.5326  -7.5363  -6.9946  -6.4653  -6.0259  -5.6995  -5.1760  -4.5873
    -4.1893  -3.1473  -1.2935

          k = 0.1599-0.2773 0.0000 ( 15920 PWs)   bands (ev):

   -69.6778 -68.8822 -36.4116 -36.2834 -36.0857 -35.5469 -35.4355 -35.2405
   -21.3659 -21.2826 -21.2734 -21.2728 -21.2655 -21.2589 -21.2568 -20.5912
   -20.5223 -20.5203 -20.5127 -20.5056 -20.5036 -20.4787 -19.7027 -18.8339
   -12.7980  -7.2821  -7.0033  -6.6608  -5.9122  -5.5166  -4.9786  -4.6175
    -4.2757  -3.0110  -1.2109

          k = 0.1598-0.1849 0.0000 ( 15911 PWs)   bands (ev):

   -69.6881 -68.8922 -36.3244 -36.2687 -36.0180 -35.4823 -35.3922 -35.1778
   -21.3843 -21.2840 -21.2770 -21.2694 -21.2673 -21.2581 -21.2497 -20.6043
   -20.5221 -20.5171 -20.5144 -20.5107 -20.5097 -20.4699 -19.8069 -18.9408
   -12.9810  -7.6107  -6.9452  -6.3971  -5.9797  -5.1677  -4.8720  -4.5334
    -4.2092  -2.7962  -1.1100

          k = 0.1598-0.0924 0.0000 ( 15931 PWs)   bands (ev):

   -69.6957 -68.8995 -36.3551 -36.1488 -35.9805 -35.4915 -35.2913 -35.1418
   -21.3994 -21.2842 -21.2797 -21.2721 -21.2628 -21.2581 -21.2434 -20.6168
   -20.5239 -20.5187 -20.5141 -20.5136 -20.5090 -20.4634 -19.8993 -19.0272
   -13.0707  -7.8749  -6.9246  -6.3549  -5.8724  -5.0367  -4.9027  -4.4227
    -3.7780  -2.6897  -0.9977

          k = 0.1597-0.0000 0.0000 ( 15940 PWs)   bands (ev):

   -69.6985 -68.9022 -36.3664 -36.0964 -35.9744 -35.4971 -35.2461 -35.1340
   -21.4051 -21.2843 -21.2811 -21.2725 -21.2603 -21.2588 -21.2412 -20.6221
   -20.5253 -20.5197 -20.5151 -20.5123 -20.5085 -20.4610 -19.9365 -19.0603
   -13.0952  -7.9655  -6.9156  -6.4185  -5.7630  -5.0427  -4.9443  -4.1190
    -3.8044  -2.6716  -0.7250

          k = 0.2394 0.1386 0.0000 ( 15895 PWs)   bands (ev):

   -69.6840 -68.8882 -36.3494 -36.3061 -36.0236 -35.5046 -35.4364 -35.1806
   -21.3763 -21.2846 -21.2740 -21.2675 -21.2665 -21.2625 -21.2515 -20.5985
   -20.5215 -20.5189 -20.5110 -20.5100 -20.5087 -20.4730 -19.7659 -18.8974
   -12.9152  -7.6662  -6.7827  -6.2996  -6.1654  -5.4364  -4.8319  -4.6445
    -3.9513  -2.8767  -1.4680

          k = 0.2393 0.2310 0.0000 ( 15903 PWs)   bands (ev):

   -69.6765 -68.8809 -36.4541 -36.2776 -36.0706 -35.5844 -35.4363 -35.2241
   -21.3639 -21.2823 -21.2723 -21.2707 -21.2662 -21.2609 -21.2559 -20.5901
   -20.5232 -20.5193 -20.5127 -20.5053 -20.5020 -20.4792 -19.6970 -18.8231
   -12.7633  -7.6162  -6.7931  -6.5140  -5.9534  -5.6508  -4.9964  -4.5251
    -4.1349  -2.9951  -1.4620

          k = 0.2392 0.3235 0.0000 ( 15923 PWs)   bands (ev):

   -69.6677 -68.8724 -36.5389 -36.2457 -36.1604 -35.6586 -35.4208 -35.3067
   -21.3505 -21.2792 -21.2766 -21.2689 -21.2660 -21.2627 -21.2567 -20.5819
   -20.5255 -20.5189 -20.5149 -20.5023 -20.4919 -20.4863 -19.6241 -18.7426
   -12.5352  -7.5375  -6.9918  -6.4647  -6.0222  -5.6961  -5.1710  -4.5820
    -4.1855  -3.1513  -1.2948

          k = 0.2392 0.4159 0.0000 ( 15896 PWs)   bands (ev):

   -69.6601 -68.8651 -36.5832 -36.2749 -36.2096 -35.7005 -35.4070 -35.4017
   -21.3397 -21.2802 -21.2757 -21.2706 -21.2674 -21.2625 -21.2552 -20.5756
   -20.5266 -20.5177 -20.5176 -20.5016 -20.4948 -20.4803 -19.5667 -18.6781
   -12.2935  -7.5870  -7.0167  -6.4788  -6.2599  -5.5030  -5.1194  -4.8993
    -4.1336  -3.2844  -1.0517

          k = 0.2391 0.5083 0.0000 ( 15892 PWs)   bands (ev):

   -69.6557 -68.8608 -36.5911 -36.3522 -36.1942 -35.7127 -35.4707 -35.3978
   -21.3338 -21.2817 -21.2757 -21.2714 -21.2665 -21.2621 -21.2545 -20.5722
   -20.5262 -20.5202 -20.5159 -20.5026 -20.4988 -20.4743 -19.5360 -18.6432
   -12.1360  -7.6717  -7.0058  -6.6750  -6.0541  -5.4664  -5.1613  -4.9064
    -4.2947  -3.2984  -0.7841

          k = 0.2390 0.6007 0.0000 ( 15907 PWs)   bands (ev):

   -69.6556 -68.8607 -36.5925 -36.3514 -36.1939 -35.7134 -35.4706 -35.3977
   -21.3339 -21.2821 -21.2756 -21.2710 -21.2668 -21.2626 -21.2539 -20.5723
   -20.5262 -20.5203 -20.5160 -20.5025 -20.4988 -20.4742 -19.5360 -18.6431
   -12.1356  -7.6727  -7.0066  -6.6750  -6.0569  -5.4641  -5.1627  -4.9074
    -4.2937  -3.2983  -0.7855

          k = 0.2399-0.4159 0.0000 ( 15891 PWs)   bands (ev):

   -69.6600 -68.8649 -36.5861 -36.2744 -36.2082 -35.7018 -35.4068 -35.4018
   -21.3398 -21.2810 -21.2753 -21.2706 -21.2672 -21.2633 -21.2542 -20.5757
   -20.5265 -20.5178 -20.5177 -20.5015 -20.4949 -20.4802 -19.5665 -18.6778
   -12.2925  -7.5886  -7.0187  -6.4808  -6.2620  -5.5037  -5.1203  -4.9008
    -4.1337  -3.2835  -1.0532

          k = 0.2398-0.3235 0.0000 ( 15923 PWs)   bands (ev):

   -69.6676 -68.8723 -36.5418 -36.2460 -36.1586 -35.6596 -35.4206 -35.3076
   -21.3507 -21.2788 -21.2776 -21.2685 -21.2665 -21.2630 -21.2557 -20.5821
   -20.5255 -20.5190 -20.5150 -20.5022 -20.4919 -20.4864 -19.6237 -18.7421
   -12.5337  -7.5382  -6.9933  -6.4657  -6.0252  -5.6984  -5.1736  -4.5846
    -4.1868  -3.1496  -1.2942

          k = 0.2397-0.2311 0.0000 ( 15897 PWs)   bands (ev):

   -69.6763 -68.8807 -36.4564 -36.2772 -36.0702 -35.5846 -35.4360 -35.2258
   -21.3642 -21.2816 -21.2733 -21.2710 -21.2663 -21.2611 -21.2549 -20.5903
   -20.5231 -20.5193 -20.5128 -20.5052 -20.5019 -20.4793 -19.6965 -18.8226
   -12.7614  -7.6154  -6.7921  -6.5144  -5.9577  -5.6528  -5.0011  -4.5280
    -4.1386  -2.9919  -1.4594

          k = 0.2396-0.1387 0.0000 ( 15893 PWs)   bands (ev):

   -69.6839 -68.8881 -36.3514 -36.3050 -36.0239 -35.5042 -35.4361 -35.1825
   -21.3766 -21.2835 -21.2750 -21.2685 -21.2664 -21.2620 -21.2510 -20.5986
   -20.5215 -20.5188 -20.5111 -20.5099 -20.5087 -20.4731 -19.7654 -18.8970
   -12.9136  -7.6643  -6.7801  -6.2969  -6.1738  -5.4351  -4.8392  -4.6437
    -3.9589  -2.8721  -1.4639

          k = 0.2396-0.0462 0.0000 ( 15915 PWs)   bands (ev):

   -69.6883 -68.8923 -36.3248 -36.2643 -36.0204 -35.4824 -35.3909 -35.1771
   -21.3841 -21.2834 -21.2794 -21.2674 -21.2652 -21.2604 -21.2495 -20.6042
   -20.5221 -20.5172 -20.5144 -20.5108 -20.5097 -20.4698 -19.8077 -18.9415
   -12.9825  -7.6114  -6.9460  -6.3946  -5.9779  -5.1646  -4.8720  -4.5288
    -4.2087  -2.7966  -1.1072

          k = 0.2395 0.0462 0.0000 ( 15907 PWs)   bands (ev):

   -69.6884 -68.8924 -36.3246 -36.2643 -36.0201 -35.4825 -35.3913 -35.1761
   -21.3840 -21.2844 -21.2784 -21.2674 -21.2649 -21.2607 -21.2497 -20.6041
   -20.5221 -20.5172 -20.5144 -20.5107 -20.5096 -20.4698 -19.8079 -18.9417
   -12.9831  -7.6124  -6.9472  -6.3929  -5.9770  -5.1662  -4.8699  -4.5299
    -4.2029  -2.7986  -1.1107

          k = 0.3192 0.1848 0.0000 ( 15884 PWs)   bands (ev):

   -69.6722 -68.8768 -36.5409 -36.2619 -36.0664 -35.6591 -35.4310 -35.2207
   -21.3591 -21.2797 -21.2718 -21.2701 -21.2675 -21.2610 -21.2550 -20.5874
   -20.5255 -20.5169 -20.5136 -20.5036 -20.4970 -20.4815 -19.6749 -18.7897
   -12.6496  -7.9535  -6.7081  -6.2620  -6.1384  -5.6622  -4.9004  -4.8004
    -3.7530  -3.0395  -1.7329

          k = 0.3191 0.2772 0.0000 ( 15921 PWs)   bands (ev):

   -69.6663 -68.8710 -36.6103 -36.2411 -36.1152 -35.7188 -35.4200 -35.2653
   -21.3517 -21.2784 -21.2750 -21.2698 -21.2649 -21.2595 -21.2559 -20.5831
   -20.5274 -20.5158 -20.5153 -20.5014 -20.4897 -20.4859 -19.6338 -18.7394
   -12.4694  -8.0995  -6.7848  -6.3237  -5.9304  -5.6527  -5.2496  -4.6096
    -3.9442  -3.0327  -1.5909

          k = 0.3191 0.3697 0.0000 ( 15899 PWs)   bands (ev):

   -69.6603 -68.8652 -36.6290 -36.2299 -36.2064 -35.7373 -35.4081 -35.3569
   -21.3424 -21.2805 -21.2746 -21.2701 -21.2638 -21.2623 -21.2552 -20.5774
   -20.5278 -20.5175 -20.5158 -20.5011 -20.4931 -20.4805 -19.5814 -18.6853
   -12.2752  -8.0025  -6.9069  -6.4238  -5.8902  -5.6183  -5.3553  -4.5142
    -4.3324  -3.1046  -1.2232

          k = 0.3190 0.4621 0.0000 ( 15901 PWs)   bands (ev):

   -69.6558 -68.8609 -36.5879 -36.3534 -36.1947 -35.7121 -35.4694 -35.3981
   -21.3336 -21.2818 -21.2741 -21.2703 -21.2685 -21.2627 -21.2548 -20.5720
   -20.5263 -20.5201 -20.5161 -20.5026 -20.4986 -20.4744 -19.5362 -18.6436
   -12.1375  -7.6709  -7.0037  -6.6726  -6.0553  -5.4627  -5.1597  -4.9054
    -4.2896  -3.3028  -0.7843

          k = 0.3189 0.5545 0.0000 ( 15864 PWs)   bands (ev):

   -69.6542 -68.8593 -36.5186 -36.4566 -36.1862 -35.6786 -35.5363 -35.3948
   -21.3298 -21.2822 -21.2739 -21.2722 -21.2670 -21.2658 -21.2540 -20.5697
   -20.5239 -20.5227 -20.5162 -20.5037 -20.5009 -20.4721 -19.5183 -18.6278
   -12.0906  -7.3368  -7.0984  -6.9157  -5.9074  -5.7201  -5.1829  -4.6600
    -4.4209  -3.4145  -0.5170

          k = 0.3188 0.6469 0.0000 ( 15909 PWs)   bands (ev):

   -69.6557 -68.8608 -36.5905 -36.3522 -36.1942 -35.7128 -35.4698 -35.3979
   -21.3338 -21.2821 -21.2746 -21.2705 -21.2678 -21.2631 -21.2541 -20.5722
   -20.5262 -20.5202 -20.5160 -20.5025 -20.4987 -20.4743 -19.5361 -18.6433
   -12.1366  -7.6719  -7.0051  -6.6738  -6.0581  -5.4620  -5.1620  -4.9066
    -4.2905  -3.3009  -0.7848

          k = 0.3197-0.3697 0.0000 ( 15907 PWs)   bands (ev):

   -69.6601 -68.8651 -36.6317 -36.2311 -36.2041 -35.7381 -35.4078 -35.3582
   -21.3426 -21.2811 -21.2749 -21.2701 -21.2640 -21.2625 -21.2541 -20.5776
   -20.5278 -20.5176 -20.5157 -20.5009 -20.4933 -20.4804 -19.5811 -18.6849
   -12.2735  -8.0028  -6.9088  -6.4264  -5.8933  -5.6204  -5.3582  -4.5162
    -4.3338  -3.1024  -1.2223

          k = 0.3196-0.2773 0.0000 ( 15919 PWs)   bands (ev):

   -69.6661 -68.8708 -36.6127 -36.2407 -36.1151 -35.7193 -35.4196 -35.2673
   -21.3520 -21.2789 -21.2750 -21.2698 -21.2655 -21.2600 -21.2544 -20.5833
   -20.5274 -20.5158 -20.5154 -20.5013 -20.4896 -20.4860 -19.6333 -18.7389
   -12.4671  -8.0984  -6.7850  -6.3272  -5.9353  -5.6528  -5.2544  -4.6141
    -3.9468  -3.0299  -1.5885

          k = 0.3195-0.1849 0.0000 ( 15878 PWs)   bands (ev):

   -69.6721 -68.8766 -36.5426 -36.2613 -36.0669 -35.6590 -35.4307 -35.2229
   -21.3594 -21.2790 -21.2726 -21.2702 -21.2680 -21.2612 -21.2538 -20.5876
   -20.5254 -20.5168 -20.5137 -20.5035 -20.4969 -20.4817 -19.6744 -18.7892
   -12.6474  -7.9514  -6.7057  -6.2608  -6.1479  -5.6621  -4.9088  -4.8013
    -3.7594  -3.0341  -1.7294

          k = 0.3194-0.0924 0.0000 ( 15895 PWs)   bands (ev):

   -69.6765 -68.8809 -36.4526 -36.2769 -36.0728 -35.5824 -35.4362 -35.2262
   -21.3640 -21.2813 -21.2738 -21.2701 -21.2661 -21.2621 -21.2549 -20.5901
   -20.5232 -20.5192 -20.5126 -20.5054 -20.5020 -20.4792 -19.6971 -18.8232
   -12.7626  -7.6132  -6.7903  -6.5128  -5.9556  -5.6518  -5.0014  -4.5248
    -4.1397  -2.9891  -1.4557

          k = 0.3194-0.0000 0.0000 ( 15910 PWs)   bands (ev):

   -69.6781 -68.8825 -36.4046 -36.2835 -36.0896 -35.5441 -35.4358 -35.2396
   -21.3654 -21.2828 -21.2754 -21.2701 -21.2628 -21.2610 -21.2580 -20.5909
   -20.5224 -20.5203 -20.5123 -20.5060 -20.5038 -20.4785 -19.7039 -18.8351
   -12.8009  -7.2803  -7.0019  -6.6603  -5.9077  -5.5143  -4.9725  -4.6163
    -4.2695  -3.0113  -1.2080

          k = 0.3193 0.0924 0.0000 ( 15903 PWs)   bands (ev):

   -69.6766 -68.8810 -36.4516 -36.2774 -36.0723 -35.5828 -35.4364 -35.2245
   -21.3638 -21.2821 -21.2730 -21.2698 -21.2658 -21.2618 -21.2558 -20.5900
   -20.5232 -20.5193 -20.5125 -20.5054 -20.5021 -20.4791 -19.6974 -18.8235
   -12.7640  -7.6149  -6.7922  -6.5130  -5.9521  -5.6506  -4.9971  -4.5231
    -4.1355  -2.9929  -1.4589

          k = 0.3990 0.2310 0.0000 ( 15919 PWs)   bands (ev):

   -69.6636 -68.8685 -36.6773 -36.2344 -36.0974 -35.7744 -35.4161 -35.2498
   -21.3513 -21.2787 -21.2777 -21.2661 -21.2614 -21.2583 -21.2548 -20.5833
   -20.5294 -20.5162 -20.5130 -20.4998 -20.4869 -20.4856 -19.6343 -18.7262
   -12.3542  -8.4787  -6.6174  -6.2146  -6.1224  -5.5779  -5.0598  -4.9474
    -3.4799  -3.0891  -1.7811

          k = 0.3989 0.3235 0.0000 ( 15904 PWs)   bands (ev):

   -69.6604 -68.8653 -36.6981 -36.2235 -36.1412 -35.7917 -35.4097 -35.2891
   -21.3473 -21.2806 -21.2779 -21.2648 -21.2604 -21.2589 -21.2547 -20.5808
   -20.5299 -20.5174 -20.5126 -20.4995 -20.4901 -20.4808 -19.6104 -18.6993
   -12.2349  -8.5205  -6.7215  -6.2351  -5.9129  -5.5705  -5.4298  -4.6969
    -3.8158  -2.9787  -1.5744

          k = 0.3989 0.4159 0.0000 ( 15894 PWs)   bands (ev):

   -69.6576 -68.8626 -36.6602 -36.2425 -36.2065 -35.7641 -35.4041 -35.3751
   -21.3402 -21.2813 -21.2766 -21.2665 -21.2635 -21.2603 -21.2560 -20.5761
   -20.5285 -20.5187 -20.5139 -20.5012 -20.4949 -20.4767 -19.5689 -18.6666
   -12.1618  -8.1959  -6.9058  -6.3824  -5.8040  -5.5555  -5.4550  -4.4634
    -4.4476  -3.0579  -1.1563

          k = 0.3988 0.5083 0.0000 ( 15909 PWs)   bands (ev):

   -69.6559 -68.8610 -36.5852 -36.3549 -36.1952 -35.7106 -35.4701 -35.3982
   -21.3336 -21.2813 -21.2740 -21.2709 -21.2684 -21.2618 -21.2557 -20.5719
   -20.5263 -20.5200 -20.5160 -20.5028 -20.4986 -20.4745 -19.5363 -18.6437
   -12.1382  -7.6695  -7.0023  -6.6726  -6.0501  -5.4677  -5.1589  -4.9020
    -4.2913  -3.3030  -0.7805

          k = 0.3987 0.6007 0.0000 ( 15893 PWs)   bands (ev):

   -69.6559 -68.8610 -36.5864 -36.3544 -36.1950 -35.7107 -35.4707 -35.3981
   -21.3337 -21.2813 -21.2747 -21.2715 -21.2673 -21.2618 -21.2555 -20.5720
   -20.5263 -20.5201 -20.5160 -20.5027 -20.4986 -20.4744 -19.5363 -18.6436
   -12.1377  -7.6696  -7.0030  -6.6738  -6.0500  -5.4692  -5.1597  -4.9022
    -4.2931  -3.3011  -0.7796

          k = 0.3986 0.6932 0.0000 ( 15898 PWs)   bands (ev):

   -69.6574 -68.8625 -36.6623 -36.2427 -36.2057 -35.7644 -35.4039 -35.3766
   -21.3404 -21.2814 -21.2773 -21.2672 -21.2632 -21.2598 -21.2553 -20.5763
   -20.5285 -20.5188 -20.5139 -20.5011 -20.4950 -20.4766 -19.5687 -18.6662
   -12.1602  -8.1955  -6.9086  -6.3837  -5.8062  -5.5573  -5.4584  -4.4672
    -4.4480  -3.0552  -1.1543

          k = 0.3995-0.3235 0.0000 ( 15902 PWs)   bands (ev):

   -69.6602 -68.8651 -36.7004 -36.2230 -36.1415 -35.7921 -35.4093 -35.2912
   -21.3476 -21.2811 -21.2781 -21.2652 -21.2611 -21.2583 -21.2533 -20.5811
   -20.5299 -20.5175 -20.5125 -20.4994 -20.4903 -20.4807 -19.6100 -18.6988
   -12.2326  -8.5191  -6.7243  -6.2376  -5.9178  -5.5700  -5.4345  -4.7026
    -3.8180  -2.9758  -1.5717

          k = 0.3994-0.2311 0.0000 ( 15925 PWs)   bands (ev):

   -69.6634 -68.8682 -36.6793 -36.2338 -36.0982 -35.7746 -35.4157 -35.2523
   -21.3517 -21.2794 -21.2776 -21.2665 -21.2617 -21.2587 -21.2532 -20.5835
   -20.5294 -20.5163 -20.5129 -20.4997 -20.4871 -20.4854 -19.6339 -18.7257
   -12.3516  -8.4765  -6.6166  -6.2254  -6.1225  -5.5764  -5.0622  -4.9563
    -3.4861  -3.0832  -1.7777

          k = 0.3993-0.1387 0.0000 ( 15919 PWs)   bands (ev):

   -69.6662 -68.8710 -36.6099 -36.2400 -36.1175 -35.7174 -35.4199 -35.2678
   -21.3519 -21.2782 -21.2747 -21.2704 -21.2654 -21.2596 -21.2552 -20.5832
   -20.5274 -20.5156 -20.5153 -20.5015 -20.4897 -20.4860 -19.6336 -18.7393
   -12.4680  -8.0951  -6.7885  -6.3186  -5.9342  -5.6527  -5.2551  -4.6127
    -3.9495  -3.0265  -1.5848

          k = 0.3992-0.0462 0.0000 ( 15921 PWs)   bands (ev):

   -69.6679 -68.8726 -36.5351 -36.2442 -36.1646 -35.6556 -35.4210 -35.3083
   -21.3504 -21.2795 -21.2743 -21.2706 -21.2666 -21.2619 -21.2573 -20.5818
   -20.5256 -20.5188 -20.5148 -20.5026 -20.4920 -20.4863 -19.6244 -18.7430
   -12.5359  -7.5330  -6.9912  -6.4606  -6.0223  -5.6977  -5.1707  -4.5824
    -4.1878  -3.1474  -1.2872

          k = 0.3992 0.0462 0.0000 ( 15927 PWs)   bands (ev):

   -69.6679 -68.8726 -36.5345 -36.2446 -36.1642 -35.6558 -35.4211 -35.3074
   -21.3503 -21.2796 -21.2743 -21.2705 -21.2660 -21.2621 -21.2577 -20.5817
   -20.5256 -20.5188 -20.5148 -20.5026 -20.4920 -20.4862 -19.6245 -18.7431
   -12.5366  -7.5341  -6.9907  -6.4615  -6.0205  -5.6963  -5.1687  -4.5821
    -4.1854  -3.1496  -1.2890

          k = 0.3991 0.1386 0.0000 ( 15925 PWs)   bands (ev):

   -69.6664 -68.8711 -36.6085 -36.2406 -36.1167 -35.7175 -35.4201 -35.2657
   -21.3516 -21.2781 -21.2747 -21.2699 -21.2651 -21.2592 -21.2565 -20.5830
   -20.5274 -20.5157 -20.5153 -20.5015 -20.4897 -20.4859 -19.6339 -18.7397
   -12.4700  -8.0974  -6.7876  -6.3182  -5.9294  -5.6520  -5.2513  -4.6083
    -3.9462  -3.0303  -1.5880

          k =-0.4788-0.2772 0.0000 ( 15926 PWs)   bands (ev):

   -69.6604 -68.8654 -36.7264 -36.2267 -36.1087 -35.8137 -35.4105 -35.2605
   -21.3495 -21.2806 -21.2791 -21.2639 -21.2583 -21.2570 -21.2538 -20.5824
   -20.5308 -20.5173 -20.5114 -20.4984 -20.4887 -20.4811 -19.6248 -18.7063
   -12.2137  -8.7222  -6.5181  -6.2574  -6.0752  -5.6138  -5.1434  -4.9603
    -3.3636  -3.0763  -1.7713

          k =-0.4789-0.1848 0.0000 ( 15900 PWs)   bands (ev):

   -69.6604 -68.8654 -36.6975 -36.2232 -36.1419 -35.7912 -35.4097 -35.2892
   -21.3473 -21.2800 -21.2784 -21.2652 -21.2596 -21.2581 -21.2559 -20.5808
   -20.5299 -20.5174 -20.5125 -20.4995 -20.4901 -20.4808 -19.6104 -18.6994
   -12.2352  -8.5196  -6.7239  -6.2309  -5.9115  -5.5728  -5.4294  -4.6966
    -3.8167  -2.9778  -1.5731

          k =-0.4790-0.0924 0.0000 ( 15890 PWs)   bands (ev):

   -69.6604 -68.8653 -36.6263 -36.2261 -36.2119 -35.7354 -35.4083 -35.3576
   -21.3423 -21.2795 -21.2752 -21.2704 -21.2638 -21.2607 -21.2569 -20.5773
   -20.5278 -20.5174 -20.5156 -20.5013 -20.4931 -20.4806 -19.5815 -18.6856
   -12.2761  -7.9997  -6.9090  -6.4187  -5.8882  -5.6157  -5.3569  -4.5132
    -4.3353  -3.1033  -1.2183

          k =-0.4791 0.0000 0.0000 ( 15906 PWs)   bands (ev):

   -69.6603 -68.8653 -36.5779 -36.2760 -36.2119 -35.6975 -35.4075 -35.4022
   -21.3395 -21.2793 -21.2753 -21.2702 -21.2686 -21.2611 -21.2570 -20.5754
   -20.5266 -20.5177 -20.5175 -20.5019 -20.4946 -20.4805 -19.5671 -18.6786
   -12.2953  -7.5846  -7.0131  -6.4756  -6.2570  -5.5048  -5.1162  -4.8980
    -4.1333  -3.2852  -1.0447

          k =-0.4791 0.0925 0.0000 ( 15901 PWs)   bands (ev):

   -69.6603 -68.8652 -36.6275 -36.2254 -36.2125 -35.7354 -35.4081 -35.3590
   -21.3425 -21.2795 -21.2759 -21.2709 -21.2632 -21.2604 -21.2566 -20.5774
   -20.5278 -20.5175 -20.5156 -20.5013 -20.4932 -20.4805 -19.5814 -18.6853
   -12.2749  -7.9984  -6.9113  -6.4189  -5.8904  -5.6163  -5.3599  -4.5144
    -4.3386  -3.1004  -1.2157

          k =-0.4792 0.1849 0.0000 ( 15900 PWs)   bands (ev):

   -69.6602 -68.8652 -36.6994 -36.2225 -36.1426 -35.7914 -35.4094 -35.2915
   -21.3476 -21.2801 -21.2790 -21.2659 -21.2598 -21.2576 -21.2547 -20.5811
   -20.5299 -20.5174 -20.5124 -20.4995 -20.4903 -20.4807 -19.6101 -18.6989
   -12.2330  -8.5177  -6.7275  -6.2317  -5.9156  -5.5734  -5.4335  -4.7024
    -3.8189  -2.9745  -1.5700

          k =-0.4783-0.8318 0.0000 ( 15918 PWs)   bands (ev):

   -69.6602 -68.8652 -36.7285 -36.2261 -36.1096 -35.8140 -35.4101 -35.2630
   -21.3498 -21.2811 -21.2794 -21.2646 -21.2588 -21.2566 -21.2523 -20.5827
   -20.5308 -20.5174 -20.5113 -20.4983 -20.4889 -20.4809 -19.6244 -18.7058
   -12.2111  -8.7201  -6.5190  -6.2685  -6.0730  -5.6135  -5.1464  -4.9694
    -3.3698  -3.0698  -1.7680

     highest occupied level (ev):    -0.2691

!    total energy              =   -1438.35616635 Ry
     estimated scf accuracy    <          8.5E-13 Ry

     The total energy is the sum of the following terms:
     one-electron contribution =  -14106.43576010 Ry
     hartree contribution      =    7084.11719655 Ry
     xc contribution           =    -153.69885881 Ry
     ewald contribution        =    5737.66125600 Ry

     convergence has been achieved in  55 iterations

     negative rho (up, down):  3.261E-04 0.000E+00

     Forces acting on atoms (cartesian axes, Ry/au):

     atom    1 type  2   force =    -0.00054825   -0.00014362   -0.00014566
     atom    2 type  1   force =     0.00030183   -0.00015177    0.00000577
     atom    3 type  1   force =     0.00019028   -0.00028620    0.00006017
     atom    4 type  3   force =     0.00013150    0.00045289    0.00009015
     atom    5 type  3   force =    -0.00007536    0.00012870   -0.00001042

     Total force =     0.000912     Total SCF correction =     0.000013


     Computing stress (Cartesian axis) and pressure


     negative rho (up, down):  3.261E-04 0.000E+00
          total   stress  (Ry/bohr**3)                   (kbar)     P=       -0.38
  -0.00000423  -0.00000145   0.00000037           -0.62       -0.21        0.05
  -0.00000145   0.00000314   0.00000069           -0.21        0.46        0.10
   0.00000037   0.00000069  -0.00000669            0.05        0.10       -0.98


     BFGS Geometry Optimization
     Energy error            =      0.0E+00 Ry
     Gradient error          =      5.5E-04 Ry/Bohr
     Cell gradient error     =      6.2E-01 kbar

     number of scf cycles    =   1
     number of bfgs steps    =   0

     enthalpy           new  =   -1438.3561663542 Ry

     new trust radius        =       0.0008971561 bohr
     new conv_thr            =            1.0E-12 Ry

     new unit-cell volume =   1608.74507 a.u.^3 (   238.39142 Ang^3 )
     density =      2.82737 g/cm^3

CELL_PARAMETERS (alat=  5.55000000)
   1.043621758   0.000853255   0.000000000
  -0.521772723   0.901279808   0.000000000
   0.000000000   0.000000000  10.000000000

ATOMIC_POSITIONS (alat)
C            -0.1377133724        0.0180122470        0.0193696543
Ta            0.3841532415        0.3191927635       -0.4303678607
Ta           -0.1376201001        0.6197180364        0.4272250410
O             0.3845466693        0.3203097843        0.8049467426
O            -0.1374359175        0.0185878492       -0.8211210772



     Writing output data file /scratch/as3359/Ta2CO2_loop/Ta.save/
     NEW-OLD atomic charge density approx. for the potential

     Check: negative core charge=   -0.000001

     negative rho (up, down):  3.260E-04 0.000E+00
     extrapolated charge   69.99810, renormalised to   70.00000

     total cpu time spent up to now is      973.3 secs

     Self-consistent Calculation

     iteration #  1     ecut=    70.00 Ry     beta= 0.70
     Davidson diagonalization with overlap
     ethr =  1.00E-06,  avg # of iterations =  2.0

     Threshold (ethr) on eigenvalues was too large:
     Diagonalizing with lowered threshold

     Davidson diagonalization with overlap
     ethr =  5.75E-09,  avg # of iterations =  7.9

     negative rho (up, down):  3.263E-04 0.000E+00

     total cpu time spent up to now is     1014.5 secs

     total energy              =   -1438.35615100 Ry
     estimated scf accuracy    <       0.00001497 Ry

     iteration #  2     ecut=    70.00 Ry     beta= 0.70
     Davidson diagonalization with overlap
     ethr =  2.14E-08,  avg # of iterations =  9.9

     negative rho (up, down):  3.265E-04 0.000E+00

     total cpu time spent up to now is     1043.8 secs

     total energy              =   -1438.35615117 Ry
     estimated scf accuracy    <       0.00021615 Ry

     iteration #  3     ecut=    70.00 Ry     beta= 0.70
     Davidson diagonalization with overlap
     ethr =  2.14E-08,  avg # of iterations =  8.5

     negative rho (up, down):  3.263E-04 0.000E+00

     total cpu time spent up to now is     1068.7 secs

     total energy              =   -1438.35616739 Ry
     estimated scf accuracy    <       0.00002791 Ry

     iteration #  4     ecut=    70.00 Ry     beta= 0.70
     Davidson diagonalization with overlap
     ethr =  2.14E-08,  avg # of iterations =  5.7

     negative rho (up, down):  3.262E-04 0.000E+00

     total cpu time spent up to now is     1084.2 secs

     total energy              =   -1438.35616769 Ry
     estimated scf accuracy    <       0.00001003 Ry

     iteration #  5     ecut=    70.00 Ry     beta= 0.70
     Davidson diagonalization with overlap
     ethr =  1.43E-08,  avg # of iterations =  2.3

     negative rho (up, down):  3.262E-04 0.000E+00

     total cpu time spent up to now is     1098.1 secs

     total energy              =   -1438.35616747 Ry
     estimated scf accuracy    <       0.00000532 Ry

     iteration #  6     ecut=    70.00 Ry     beta= 0.70
     Davidson diagonalization with overlap
     ethr =  7.59E-09,  avg # of iterations =  3.4

     negative rho (up, down):  3.261E-04 0.000E+00

     total cpu time spent up to now is     1112.8 secs

     total energy              =   -1438.35616762 Ry
     estimated scf accuracy    <       0.00000217 Ry

     iteration #  7     ecut=    70.00 Ry     beta= 0.70
     Davidson diagonalization with overlap
     ethr =  3.10E-09,  avg # of iterations =  6.3

     negative rho (up, down):  3.261E-04 0.000E+00

     total cpu time spent up to now is     1130.5 secs

     total energy              =   -1438.35616811 Ry
     estimated scf accuracy    <       0.00000043 Ry

     iteration #  8     ecut=    70.00 Ry     beta= 0.70
     Davidson diagonalization with overlap
     ethr =  6.18E-10,  avg # of iterations =  4.1

     negative rho (up, down):  3.261E-04 0.000E+00

     total cpu time spent up to now is     1146.0 secs

     total energy              =   -1438.35616818 Ry
     estimated scf accuracy    <       0.00000028 Ry

     iteration #  9     ecut=    70.00 Ry     beta= 0.70
     Davidson diagonalization with overlap
     ethr =  4.03E-10,  avg # of iterations =  1.5

     negative rho (up, down):  3.261E-04 0.000E+00

     total cpu time spent up to now is     1158.9 secs

     total energy              =   -1438.35616818 Ry
     estimated scf accuracy    <       0.00000028 Ry

     iteration # 10     ecut=    70.00 Ry     beta= 0.70
     Davidson diagonalization with overlap
     ethr =  3.97E-10,  avg # of iterations =  1.3

     negative rho (up, down):  3.260E-04 0.000E+00

     total cpu time spent up to now is     1171.7 secs

     total energy              =   -1438.35616815 Ry
     estimated scf accuracy    <       0.00000027 Ry

     iteration # 11     ecut=    70.00 Ry     beta= 0.70
     Davidson diagonalization with overlap
     c_bands:  1 eigenvalues not converged
     ethr =  3.91E-10,  avg # of iterations = 11.0

     negative rho (up, down):  3.260E-04 0.000E+00

     total cpu time spent up to now is     1200.3 secs

     total energy              =   -1438.35616992 Ry
     estimated scf accuracy    <       0.00000503 Ry

     iteration # 12     ecut=    70.00 Ry     beta= 0.70
     Davidson diagonalization with overlap
     ethr =  3.91E-10,  avg # of iterations = 12.0

     negative rho (up, down):  3.259E-04 0.000E+00

     total cpu time spent up to now is     1227.5 secs

     total energy              =   -1438.35616307 Ry
     estimated scf accuracy    <       0.00001585 Ry

     iteration # 13     ecut=    70.00 Ry     beta= 0.70
     Davidson diagonalization with overlap
     c_bands:  1 eigenvalues not converged
     c_bands:  1 eigenvalues not converged
     c_bands:  1 eigenvalues not converged
     c_bands:  1 eigenvalues not converged
     c_bands:  1 eigenvalues not converged
     c_bands:  1 eigenvalues not converged
     ethr =  3.91E-10,  avg # of iterations = 16.5

     negative rho (up, down):  3.260E-04 0.000E+00

     total cpu time spent up to now is     1268.0 secs

     total energy              =   -1438.35616684 Ry
     estimated scf accuracy    <       0.00001260 Ry

     iteration # 14     ecut=    70.00 Ry     beta= 0.70
     Davidson diagonalization with overlap
     ethr =  3.91E-10,  avg # of iterations = 14.0

     negative rho (up, down):  3.260E-04 0.000E+00

     total cpu time spent up to now is     1300.3 secs

     total energy              =   -1438.35616809 Ry
     estimated scf accuracy    <       0.00000017 Ry

     iteration # 15     ecut=    70.00 Ry     beta= 0.70
     Davidson diagonalization with overlap
     ethr =  2.50E-10,  avg # of iterations =  6.7

     negative rho (up, down):  3.260E-04 0.000E+00

     total cpu time spent up to now is     1320.0 secs

     total energy              =   -1438.35616812 Ry
     estimated scf accuracy    <       0.00000012 Ry

     iteration # 16     ecut=    70.00 Ry     beta= 0.70
     Davidson diagonalization with overlap
     ethr =  1.65E-10,  avg # of iterations =  3.5

     negative rho (up, down):  3.260E-04 0.000E+00

     total cpu time spent up to now is     1334.9 secs

     total energy              =   -1438.35616813 Ry
     estimated scf accuracy    <       0.00000004 Ry

     iteration # 17     ecut=    70.00 Ry     beta= 0.70
     Davidson diagonalization with overlap
     ethr =  5.08E-11,  avg # of iterations =  6.7

     negative rho (up, down):  3.260E-04 0.000E+00

     total cpu time spent up to now is     1354.6 secs

     total energy              =   -1438.35616813 Ry
     estimated scf accuracy    <       0.00000004 Ry

     iteration # 18     ecut=    70.00 Ry     beta= 0.70
     Davidson diagonalization with overlap
     ethr =  5.08E-11,  avg # of iterations =  7.9

     negative rho (up, down):  3.260E-04 0.000E+00

     total cpu time spent up to now is     1379.9 secs

     total energy              =   -1438.35616816 Ry
     estimated scf accuracy    <       0.00000018 Ry

     iteration # 19     ecut=    70.00 Ry     beta= 0.70
     Davidson diagonalization with overlap
     ethr =  5.08E-11,  avg # of iterations =  1.0

     negative rho (up, down):  3.260E-04 0.000E+00

     total cpu time spent up to now is     1392.4 secs

     total energy              =   -1438.35616816 Ry
     estimated scf accuracy    <       0.00000016 Ry

     iteration # 20     ecut=    70.00 Ry     beta= 0.70
     Davidson diagonalization with overlap
     ethr =  5.08E-11,  avg # of iterations =  1.0

     negative rho (up, down):  3.260E-04 0.000E+00

     total cpu time spent up to now is     1405.0 secs

     total energy              =   -1438.35616815 Ry
     estimated scf accuracy    <       0.00000016 Ry

     iteration # 21     ecut=    70.00 Ry     beta= 0.70
     Davidson diagonalization with overlap
     ethr =  5.08E-11,  avg # of iterations =  1.9

     negative rho (up, down):  3.260E-04 0.000E+00

     total cpu time spent up to now is     1418.2 secs

     total energy              =   -1438.35616815 Ry
     estimated scf accuracy    <       0.00000013 Ry

     iteration # 22     ecut=    70.00 Ry     beta= 0.70
     Davidson diagonalization with overlap
     ethr =  5.08E-11,  avg # of iterations =  1.7

     negative rho (up, down):  3.260E-04 0.000E+00

     total cpu time spent up to now is     1431.4 secs

     total energy              =   -1438.35616815 Ry
     estimated scf accuracy    <       0.00000010 Ry

     iteration # 23     ecut=    70.00 Ry     beta= 0.70
     Davidson diagonalization with overlap
     ethr =  5.08E-11,  avg # of iterations =  6.3

     negative rho (up, down):  3.260E-04 0.000E+00

     total cpu time spent up to now is     1446.4 secs

     total energy              =   -1438.35616815 Ry
     estimated scf accuracy    <       0.00000009 Ry

     iteration # 24     ecut=    70.00 Ry     beta= 0.70
     Davidson diagonalization with overlap
     ethr =  5.08E-11,  avg # of iterations =  1.4

     negative rho (up, down):  3.260E-04 0.000E+00

     total cpu time spent up to now is     1459.3 secs

     total energy              =   -1438.35616815 Ry
     estimated scf accuracy    <       0.00000008 Ry

     iteration # 25     ecut=    70.00 Ry     beta= 0.70
     Davidson diagonalization with overlap
     ethr =  5.08E-11,  avg # of iterations =  1.3

     negative rho (up, down):  3.260E-04 0.000E+00

     total cpu time spent up to now is     1472.0 secs

     total energy              =   -1438.35616813 Ry
     estimated scf accuracy    <       0.00000007 Ry

     iteration # 26     ecut=    70.00 Ry     beta= 0.70
     Davidson diagonalization with overlap
     ethr =  5.08E-11,  avg # of iterations =  7.8

     negative rho (up, down):  3.260E-04 0.000E+00

     total cpu time spent up to now is     1492.5 secs

     total energy              =   -1438.35616814 Ry
     estimated scf accuracy    <       0.00000006 Ry

     iteration # 27     ecut=    70.00 Ry     beta= 0.70
     Davidson diagonalization with overlap
     ethr =  5.08E-11,  avg # of iterations =  2.0

     negative rho (up, down):  3.260E-04 0.000E+00

     total cpu time spent up to now is     1506.3 secs

     total energy              =   -1438.35616814 Ry
     estimated scf accuracy    <       0.00000003 Ry

     iteration # 28     ecut=    70.00 Ry     beta= 0.70
     Davidson diagonalization with overlap
     ethr =  4.68E-11,  avg # of iterations =  2.9

     negative rho (up, down):  3.260E-04 0.000E+00

     total cpu time spent up to now is     1520.3 secs

     total energy              =   -1438.35616813 Ry
     estimated scf accuracy    <       0.00000001 Ry

     iteration # 29     ecut=    70.00 Ry     beta= 0.70
     Davidson diagonalization with overlap
     ethr =  1.61E-11,  avg # of iterations =  9.8

     negative rho (up, down):  3.260E-04 0.000E+00

     total cpu time spent up to now is     1540.6 secs

     total energy              =   -1438.35616814 Ry
     estimated scf accuracy    <       0.00000010 Ry

     iteration # 30     ecut=    70.00 Ry     beta= 0.70
     Davidson diagonalization with overlap
     ethr =  1.61E-11,  avg # of iterations =  2.0

     negative rho (up, down):  3.260E-04 0.000E+00

     total cpu time spent up to now is     1554.3 secs

     total energy              =   -1438.35616814 Ry
     estimated scf accuracy    <       0.00000008 Ry

     iteration # 31     ecut=    70.00 Ry     beta= 0.70
     Davidson diagonalization with overlap
     ethr =  1.61E-11,  avg # of iterations =  5.4

     negative rho (up, down):  3.260E-04 0.000E+00

     total cpu time spent up to now is     1569.5 secs

     total energy              =   -1438.35616814 Ry
     estimated scf accuracy    <       0.00000004 Ry

     iteration # 32     ecut=    70.00 Ry     beta= 0.70
     Davidson diagonalization with overlap
     ethr =  1.61E-11,  avg # of iterations = 10.3

     negative rho (up, down):  3.260E-04 0.000E+00

     total cpu time spent up to now is     1587.5 secs

     total energy              =   -1438.35616814 Ry
     estimated scf accuracy    <          1.9E-10 Ry

     iteration # 33     ecut=    70.00 Ry     beta= 0.70
     Davidson diagonalization with overlap
     c_bands:  1 eigenvalues not converged
     c_bands:  1 eigenvalues not converged
     c_bands:  1 eigenvalues not converged
     c_bands:  1 eigenvalues not converged
     c_bands:  1 eigenvalues not converged
     c_bands:  1 eigenvalues not converged
     c_bands:  1 eigenvalues not converged
     c_bands:  1 eigenvalues not converged
     c_bands:  1 eigenvalues not converged
     c_bands:  1 eigenvalues not converged
     c_bands:  1 eigenvalues not converged
     c_bands:  1 eigenvalues not converged
     c_bands:  1 eigenvalues not converged
     c_bands:  1 eigenvalues not converged
     c_bands:  1 eigenvalues not converged
     c_bands:  1 eigenvalues not converged
     c_bands:  1 eigenvalues not converged
     ethr =  2.68E-13,  avg # of iterations = 17.0

     negative rho (up, down):  3.260E-04 0.000E+00

     total cpu time spent up to now is     1618.6 secs

     total energy              =   -1438.35616814 Ry
     estimated scf accuracy    <       0.00000002 Ry

     iteration # 34     ecut=    70.00 Ry     beta= 0.70
     Davidson diagonalization with overlap
     c_bands:  1 eigenvalues not converged
     ethr =  2.68E-13,  avg # of iterations =  9.9

     negative rho (up, down):  3.260E-04 0.000E+00

     total cpu time spent up to now is     1636.7 secs

     total energy              =   -1438.35616814 Ry
     estimated scf accuracy    <       0.00000001 Ry

     iteration # 35     ecut=    70.00 Ry     beta= 0.70
     Davidson diagonalization with overlap
     c_bands:  1 eigenvalues not converged
     c_bands:  1 eigenvalues not converged
     c_bands:  1 eigenvalues not converged
     c_bands:  1 eigenvalues not converged
     c_bands:  1 eigenvalues not converged
     c_bands:  1 eigenvalues not converged
     c_bands:  1 eigenvalues not converged
     c_bands:  1 eigenvalues not converged
     ethr =  2.68E-13,  avg # of iterations = 15.4

     negative rho (up, down):  3.260E-04 0.000E+00

     total cpu time spent up to now is     1663.9 secs

     total energy              =   -1438.35616814 Ry
     estimated scf accuracy    <          4.2E-11 Ry

     iteration # 36     ecut=    70.00 Ry     beta= 0.70
     Davidson diagonalization with overlap
     ethr =  1.00E-13,  avg # of iterations =  8.8

     negative rho (up, down):  3.260E-04 0.000E+00

     total cpu time spent up to now is     1681.9 secs

     total energy              =   -1438.35616814 Ry
     estimated scf accuracy    <          3.6E-10 Ry

     iteration # 37     ecut=    70.00 Ry     beta= 0.70
     Davidson diagonalization with overlap
     ethr =  1.00E-13,  avg # of iterations =  1.2

     negative rho (up, down):  3.260E-04 0.000E+00

     total cpu time spent up to now is     1694.9 secs

     total energy              =   -1438.35616814 Ry
     estimated scf accuracy    <          3.7E-10 Ry

     iteration # 38     ecut=    70.00 Ry     beta= 0.70
     Davidson diagonalization with overlap
     ethr =  1.00E-13,  avg # of iterations =  2.0

[...]

          k = 0.2393 0.3234 0.0000 ( 15923 PWs)   bands (ev):

   -69.6676 -68.8719 -36.5388 -36.2455 -36.1604 -35.6580 -35.4204 -35.3066
   -21.3503 -21.2791 -21.2764 -21.2688 -21.2658 -21.2626 -21.2566 -20.5814
   -20.5250 -20.5184 -20.5143 -20.5018 -20.4914 -20.4857 -19.6240 -18.7423
   -12.5350  -7.5371  -6.9918  -6.4646  -6.0226  -5.6966  -5.1704  -4.5834
    -4.1850  -3.1511  -1.2939

          k = 0.2393 0.4158 0.0000 ( 15894 PWs)   bands (ev):

   -69.6599 -68.8645 -36.5830 -36.2746 -36.2095 -35.7000 -35.4066 -35.4014
   -21.3395 -21.2801 -21.2755 -21.2705 -21.2672 -21.2623 -21.2551 -20.5751
   -20.5260 -20.5172 -20.5170 -20.5011 -20.4942 -20.4798 -19.5667 -18.6779
   -12.2934  -7.5870  -7.0165  -6.4790  -6.2602  -5.5035  -5.1189  -4.8997
    -4.1335  -3.2840  -1.0503

          k = 0.2392 0.5082 0.0000 ( 15890 PWs)   bands (ev):

   -69.6555 -68.8603 -36.5907 -36.3521 -36.1941 -35.7122 -35.4703 -35.3974
   -21.3337 -21.2816 -21.2756 -21.2713 -21.2664 -21.2620 -21.2544 -20.5717
   -20.5257 -20.5196 -20.5154 -20.5020 -20.4982 -20.4737 -19.5361 -18.6430
   -12.1361  -7.6713  -7.0060  -6.6751  -6.0545  -5.4666  -5.1611  -4.9066
    -4.2943  -3.2979  -0.7826

          k = 0.2391 0.6007 0.0000 ( 15901 PWs)   bands (ev):

   -69.6555 -68.8602 -36.5919 -36.3515 -36.1938 -35.7129 -35.4701 -35.3973
   -21.3337 -21.2819 -21.2754 -21.2708 -21.2667 -21.2625 -21.2538 -20.5717
   -20.5256 -20.5197 -20.5154 -20.5020 -20.4982 -20.4737 -19.5360 -18.6429
   -12.1359  -7.6718  -7.0064  -6.6754  -6.0578  -5.4643  -5.1619  -4.9079
    -4.2934  -3.2979  -0.7840

          k = 0.2399-0.4158 0.0000 ( 15891 PWs)   bands (ev):

   -69.6598 -68.8644 -36.5854 -36.2746 -36.2080 -35.7012 -35.4064 -35.4013
   -21.3397 -21.2808 -21.2752 -21.2705 -21.2670 -21.2631 -21.2541 -20.5752
   -20.5260 -20.5172 -20.5171 -20.5009 -20.4943 -20.4797 -19.5665 -18.6776
   -12.2927  -7.5878  -7.0184  -6.4805  -6.2626  -5.5042  -5.1200  -4.9006
    -4.1335  -3.2832  -1.0522

          k = 0.2398-0.3234 0.0000 ( 15917 PWs)   bands (ev):

   -69.6674 -68.8718 -36.5412 -36.2460 -36.1586 -35.6591 -35.4201 -35.3071
   -21.3506 -21.2787 -21.2774 -21.2683 -21.2664 -21.2629 -21.2556 -20.5815
   -20.5249 -20.5184 -20.5144 -20.5016 -20.4913 -20.4858 -19.6237 -18.7419
   -12.5338  -7.5378  -6.9933  -6.4657  -6.0243  -5.6990  -5.1727  -4.5852
    -4.1862  -3.1496  -1.2941

          k = 0.2398-0.2310 0.0000 ( 15897 PWs)   bands (ev):

   -69.6762 -68.8802 -36.4559 -36.2771 -36.0701 -35.5842 -35.4356 -35.2253
   -21.3641 -21.2814 -21.2731 -21.2708 -21.2661 -21.2610 -21.2548 -20.5897
   -20.5225 -20.5187 -20.5122 -20.5047 -20.5014 -20.4787 -19.6966 -18.8224
   -12.7615  -7.6153  -6.7922  -6.5138  -5.9582  -5.6516  -5.0003  -4.5279
    -4.1387  -2.9924  -1.4598

          k = 0.2397-0.1386 0.0000 ( 15895 PWs)   bands (ev):

   -69.6837 -68.8876 -36.3512 -36.3048 -36.0238 -35.5039 -35.4357 -35.1820
   -21.3764 -21.2834 -21.2749 -21.2683 -21.2663 -21.2618 -21.2509 -20.5981
   -20.5209 -20.5182 -20.5106 -20.5093 -20.5081 -20.4726 -19.7654 -18.8968
   -12.9136  -7.6643  -6.7798  -6.2967  -6.1733  -5.4348  -4.8383  -4.6435
    -3.9593  -2.8729  -1.4645

          k = 0.2396-0.0462 0.0000 ( 15911 PWs)   bands (ev):

   -69.6881 -68.8918 -36.3247 -36.2644 -36.0201 -35.4820 -35.3907 -35.1767
   -21.3839 -21.2833 -21.2792 -21.2672 -21.2651 -21.2603 -21.2494 -20.6037
   -20.5215 -20.5166 -20.5138 -20.5102 -20.5091 -20.4693 -19.8076 -18.9412
   -12.9825  -7.6113  -6.9455  -6.3938  -5.9774  -5.1647  -4.8713  -4.5292
    -4.2093  -2.7973  -1.1079

          k = 0.2395 0.0462 0.0000 ( 15909 PWs)   bands (ev):

   -69.6882 -68.8918 -36.3244 -36.2645 -36.0200 -35.4821 -35.3909 -35.1759
   -21.3838 -21.2842 -21.2783 -21.2672 -21.2648 -21.2605 -21.2496 -20.6036
   -20.5215 -20.5166 -20.5138 -20.5102 -20.5091 -20.4692 -19.8077 -18.9414
   -12.9831  -7.6120  -6.9467  -6.3920  -5.9766  -5.1658  -4.8697  -4.5298
    -4.2051  -2.7989  -1.1113

          k = 0.3193 0.1848 0.0000 ( 15884 PWs)   bands (ev):

   -69.6720 -68.8762 -36.5410 -36.2617 -36.0665 -35.6587 -35.4305 -35.2207
   -21.3590 -21.2795 -21.2716 -21.2699 -21.2673 -21.2608 -21.2548 -20.5869
   -20.5249 -20.5163 -20.5131 -20.5030 -20.4964 -20.4810 -19.6747 -18.7894
   -12.6493  -7.9528  -6.7078  -6.2617  -6.1382  -5.6614  -4.9020  -4.8001
    -3.7548  -3.0393  -1.7333

          k = 0.3192 0.2772 0.0000 ( 15921 PWs)   bands (ev):

   -69.6661 -68.8705 -36.6103 -36.2408 -36.1153 -35.7184 -35.4195 -35.2653
   -21.3515 -21.2783 -21.2748 -21.2696 -21.2647 -21.2595 -21.2558 -20.5826
   -20.5269 -20.5152 -20.5147 -20.5008 -20.4891 -20.4854 -19.6336 -18.7392
   -12.4690  -8.0989  -6.7851  -6.3234  -5.9305  -5.6515  -5.2509  -4.6100
    -3.9454  -3.0326  -1.5909

          k = 0.3191 0.3696 0.0000 ( 15899 PWs)   bands (ev):

   -69.6601 -68.8647 -36.6291 -36.2298 -36.2063 -35.7368 -35.4076 -35.3569
   -21.3422 -21.2803 -21.2745 -21.2699 -21.2636 -21.2621 -21.2551 -20.5769
   -20.5273 -20.5169 -20.5152 -20.5005 -20.4926 -20.4799 -19.5813 -18.6851
   -12.2749  -8.0023  -6.9070  -6.4237  -5.8908  -5.6182  -5.3551  -4.5149
    -4.3324  -3.1046  -1.2229

          k = 0.3191 0.4620 0.0000 ( 15903 PWs)   bands (ev):

   -69.6557 -68.8604 -36.5879 -36.3532 -36.1945 -35.7116 -35.4692 -35.3976
   -21.3335 -21.2816 -21.2739 -21.2701 -21.2684 -21.2625 -21.2546 -20.5715
   -20.5257 -20.5195 -20.5155 -20.5021 -20.4981 -20.4738 -19.5362 -18.6433
   -12.1373  -7.6712  -7.0033  -6.6730  -6.0551  -5.4633  -5.1605  -4.9042
    -4.2898  -3.3027  -0.7838

          k = 0.3190 0.5545 0.0000 ( 15864 PWs)   bands (ev):

   -69.6540 -68.8588 -36.5184 -36.4565 -36.1860 -35.6782 -35.5360 -35.3944
   -21.3297 -21.2820 -21.2738 -21.2720 -21.2669 -21.2657 -21.2538 -20.5692
   -20.5234 -20.5221 -20.5156 -20.5031 -20.5003 -20.4716 -19.5183 -18.6276
   -12.0905  -7.3369  -7.0982  -6.9158  -5.9073  -5.7201  -5.1829  -4.6600
    -4.4207  -3.4143  -0.5165

          k = 0.3189 0.6469 0.0000 ( 15913 PWs)   bands (ev):

   -69.6556 -68.8603 -36.5901 -36.3523 -36.1940 -35.7125 -35.4694 -35.3974
   -21.3336 -21.2820 -21.2744 -21.2703 -21.2676 -21.2630 -21.2540 -20.5716
   -20.5257 -20.5196 -20.5155 -20.5020 -20.4982 -20.4738 -19.5361 -18.6431
   -12.1367  -7.6717  -7.0047  -6.6740  -6.0581  -5.4623  -5.1616  -4.9065
    -4.2904  -3.3009  -0.7845

          k = 0.3197-0.3696 0.0000 ( 15899 PWs)   bands (ev):

   -69.6599 -68.8645 -36.6313 -36.2312 -36.2040 -35.7377 -35.4073 -35.3578
   -21.3425 -21.2809 -21.2747 -21.2699 -21.2638 -21.2623 -21.2540 -20.5771
   -20.5272 -20.5170 -20.5151 -20.5004 -20.4927 -20.4798 -19.5810 -18.6847
   -12.2736  -8.0025  -6.9087  -6.4261  -5.8931  -5.6204  -5.3575  -4.5166
    -4.3335  -3.1026  -1.2224

          k = 0.3197-0.2772 0.0000 ( 15921 PWs)   bands (ev):

   -69.6659 -68.8703 -36.6123 -36.2406 -36.1151 -35.7190 -35.4192 -35.2669
   -21.3518 -21.2787 -21.2748 -21.2696 -21.2653 -21.2599 -21.2543 -20.5827
   -20.5268 -20.5152 -20.5148 -20.5007 -20.4891 -20.4855 -19.6333 -18.7387
   -12.4672  -8.0982  -6.7851  -6.3263  -5.9355  -5.6520  -5.2540  -4.6135
    -3.9473  -3.0304  -1.5889

          k = 0.3196-0.1848 0.0000 ( 15878 PWs)   bands (ev):

   -69.6719 -68.8761 -36.5425 -36.2612 -36.0668 -35.6589 -35.4302 -35.2224
   -21.3593 -21.2788 -21.2724 -21.2701 -21.2679 -21.2611 -21.2536 -20.5871
   -20.5248 -20.5162 -20.5131 -20.5030 -20.4963 -20.4812 -19.6744 -18.7889
   -12.6474  -7.9514  -6.7058  -6.2600  -6.1475  -5.6618  -4.9079  -4.8008
    -3.7597  -3.0351  -1.7302

          k = 0.3195-0.0924 0.0000 ( 15897 PWs)   bands (ev):

   -69.6763 -68.8804 -36.4527 -36.2766 -36.0726 -35.5823 -35.4357 -35.2257
   -21.3638 -21.2811 -21.2736 -21.2699 -21.2659 -21.2619 -21.2548 -20.5896
   -20.5226 -20.5186 -20.5121 -20.5049 -20.5015 -20.4787 -19.6970 -18.8229
   -12.7626  -7.6132  -6.7902  -6.5127  -5.9545  -5.6517  -5.0009  -4.5244
    -4.1402  -2.9901  -1.4568

          k = 0.3194-0.0000 0.0000 ( 15916 PWs)   bands (ev):

   -69.6780 -68.8820 -36.4050 -36.2832 -36.0893 -35.5440 -35.4353 -35.2392
   -21.3652 -21.2826 -21.2752 -21.2699 -21.2627 -21.2607 -21.2578 -20.5904
   -20.5218 -20.5198 -20.5118 -20.5054 -20.5032 -20.4780 -19.7038 -18.8348
   -12.8007  -7.2799  -7.0017  -6.6599  -5.9068  -5.5136  -4.9743  -4.6151
    -4.2700  -3.0122  -1.2092

          k = 0.3194 0.0924 0.0000 ( 15897 PWs)   bands (ev):

   -69.6764 -68.8804 -36.4519 -36.2772 -36.0722 -35.5826 -35.4359 -35.2243
   -21.3636 -21.2819 -21.2728 -21.2697 -21.2657 -21.2616 -21.2557 -20.5895
   -20.5226 -20.5187 -20.5120 -20.5049 -20.5015 -20.4786 -19.6972 -18.8232
   -12.7638  -7.6143  -6.7917  -6.5127  -5.9512  -5.6506  -4.9979  -4.5230
    -4.1368  -2.9933  -1.4598

          k = 0.3991 0.2310 0.0000 ( 15914 PWs)   bands (ev):

   -69.6634 -68.8679 -36.6775 -36.2341 -36.0976 -35.7741 -35.4156 -35.2499
   -21.3512 -21.2786 -21.2775 -21.2660 -21.2612 -21.2583 -21.2546 -20.5828
   -20.5288 -20.5157 -20.5124 -20.4992 -20.4864 -20.4850 -19.6342 -18.7259
   -12.3537  -8.4782  -6.6175  -6.2148  -6.1221  -5.5763  -5.0602  -4.9490
    -3.4814  -3.0889  -1.7815

          k = 0.3990 0.3234 0.0000 ( 15906 PWs)   bands (ev):

   -69.6602 -68.8648 -36.6984 -36.2232 -36.1414 -35.7914 -35.4092 -35.2891
   -21.3472 -21.2805 -21.2777 -21.2646 -21.2602 -21.2587 -21.2546 -20.5804
   -20.5293 -20.5168 -20.5120 -20.4989 -20.4896 -20.4802 -19.6103 -18.6990
   -12.2344  -8.5202  -6.7219  -6.2348  -5.9129  -5.5694  -5.4308  -4.6977
    -3.8167  -2.9787  -1.5748

          k = 0.3990 0.4158 0.0000 ( 15896 PWs)   bands (ev):

   -69.6574 -68.8621 -36.6605 -36.2425 -36.2062 -35.7638 -35.4036 -35.3750
   -21.3400 -21.2811 -21.2765 -21.2664 -21.2633 -21.2601 -21.2558 -20.5756
   -20.5280 -20.5182 -20.5133 -20.5006 -20.4943 -20.4761 -19.5689 -18.6663
   -12.1612  -8.1960  -6.9059  -6.3823  -5.8046  -5.5553  -5.4547  -4.4639
    -4.4476  -3.0580  -1.1568

          k = 0.3989 0.5082 0.0000 ( 15911 PWs)   bands (ev):

   -69.6557 -68.8605 -36.5857 -36.3545 -36.1949 -35.7105 -35.4697 -35.3977
   -21.3335 -21.2811 -21.2738 -21.2708 -21.2683 -21.2616 -21.2555 -20.5714
   -20.5257 -20.5195 -20.5154 -20.5022 -20.4980 -20.4739 -19.5364 -18.6435
   -12.1378  -7.6701  -7.0024  -6.6725  -6.0498  -5.4671  -5.1595  -4.9018
    -4.2912  -3.3029  -0.7812

          k = 0.3988 0.6007 0.0000 ( 15895 PWs)   bands (ev):

   -69.6557 -68.8604 -36.5866 -36.3541 -36.1948 -35.7106 -35.4701 -35.3976
   -21.3335 -21.2811 -21.2745 -21.2714 -21.2672 -21.2616 -21.2553 -20.5715
   -20.5257 -20.5195 -20.5154 -20.5022 -20.4981 -20.4738 -19.5363 -18.6434
   -12.1373  -7.6701  -7.0034  -6.6733  -6.0496  -5.4683  -5.1597  -4.9028
    -4.2927  -3.3011  -0.7805

          k = 0.3988 0.6931 0.0000 ( 15898 PWs)   bands (ev):

   -69.6572 -68.8619 -36.6622 -36.2427 -36.2055 -35.7643 -35.4034 -35.3761
   -21.3402 -21.2813 -21.2772 -21.2671 -21.2630 -21.2596 -21.2552 -20.5758
   -20.5279 -20.5182 -20.5133 -20.5005 -20.4945 -20.4761 -19.5687 -18.6660
   -12.1600  -8.1956  -6.9086  -6.3834  -5.8055  -5.5571  -5.4581  -4.4669
    -4.4483  -3.0555  -1.1550

          k = 0.3995-0.3234 0.0000 ( 15902 PWs)   bands (ev):

   -69.6600 -68.8646 -36.7002 -36.2229 -36.1415 -35.7920 -35.4088 -35.2908
   -21.3475 -21.2810 -21.2779 -21.2650 -21.2609 -21.2581 -21.2532 -20.5805
   -20.5293 -20.5169 -20.5119 -20.4988 -20.4898 -20.4801 -19.6100 -18.6986
   -12.2325  -8.5191  -6.7242  -6.2370  -5.9177  -5.5694  -5.4339  -4.7020
    -3.8185  -2.9764  -1.5723

          k = 0.3995-0.2310 0.0000 ( 15921 PWs)   bands (ev):

   -69.6632 -68.8677 -36.6792 -36.2336 -36.0981 -35.7745 -35.4152 -35.2518
   -21.3515 -21.2793 -21.2774 -21.2664 -21.2615 -21.2586 -21.2530 -20.5830
   -20.5288 -20.5157 -20.5123 -20.4992 -20.4866 -20.4849 -19.6339 -18.7254
   -12.3516  -8.4766  -6.6165  -6.2250  -6.1222  -5.5760  -5.0616  -4.9555
    -3.4862  -3.0843  -1.7783

          k = 0.3994-0.1386 0.0000 ( 15919 PWs)   bands (ev):

   -69.6660 -68.8704 -36.6100 -36.2398 -36.1173 -35.7174 -35.4194 -35.2673
   -21.3517 -21.2780 -21.2746 -21.2703 -21.2652 -21.2595 -21.2550 -20.5826
   -20.5268 -20.5150 -20.5148 -20.5009 -20.4891 -20.4855 -19.6336 -18.7390
   -12.4679  -8.0955  -6.7883  -6.3191  -5.9328  -5.6523  -5.2545  -4.6123
    -3.9496  -3.0273  -1.5860

          k = 0.3993-0.0462 0.0000 ( 15919 PWs)   bands (ev):

   -69.6677 -68.8720 -36.5355 -36.2439 -36.1643 -35.6557 -35.4205 -35.3078
   -21.3502 -21.2793 -21.2742 -21.2705 -21.2665 -21.2617 -21.2571 -20.5813
   -20.5250 -20.5182 -20.5143 -20.5020 -20.4914 -20.4857 -19.6244 -18.7427
   -12.5356  -7.5333  -6.9909  -6.4609  -6.0219  -5.6959  -5.1715  -4.5819
    -4.1877  -3.1482  -1.2889

          k = 0.3993 0.0462 0.0000 ( 15923 PWs)   bands (ev):

   -69.6677 -68.8721 -36.5350 -36.2443 -36.1639 -35.6558 -35.4206 -35.3070
   -21.3501 -21.2794 -21.2742 -21.2703 -21.2658 -21.2620 -21.2575 -20.5812
   -20.5250 -20.5183 -20.5142 -20.5020 -20.4914 -20.4857 -19.6245 -18.7428
   -12.5362  -7.5342  -6.9903  -6.4615  -6.0208  -5.6949  -5.1698  -4.5815
    -4.1857  -3.1501  -1.2904

          k = 0.3992 0.1386 0.0000 ( 15919 PWs)   bands (ev):

   -69.6662 -68.8706 -36.6088 -36.2403 -36.1167 -35.7173 -35.4196 -35.2657
   -21.3515 -21.2779 -21.2746 -21.2698 -21.2649 -21.2591 -21.2563 -20.5825
   -20.5269 -20.5151 -20.5147 -20.5009 -20.4892 -20.4854 -19.6338 -18.7393
   -12.4695  -8.0971  -6.7871  -6.3186  -5.9289  -5.6515  -5.2515  -4.6091
    -3.9468  -3.0306  -1.5890

          k =-0.4789-0.2772 0.0000 ( 15922 PWs)   bands (ev):

   -69.6602 -68.8648 -36.7267 -36.2264 -36.1089 -35.8134 -35.4100 -35.2605
   -21.3494 -21.2805 -21.2789 -21.2638 -21.2582 -21.2568 -21.2536 -20.5820
   -20.5303 -20.5168 -20.5108 -20.4978 -20.4881 -20.4805 -19.6247 -18.7060
   -12.2131  -8.7219  -6.5187  -6.2578  -6.0740  -5.6126  -5.1440  -4.9619
    -3.3650  -3.0759  -1.7718

          k =-0.4790-0.1848 0.0000 ( 15904 PWs)   bands (ev):

   -69.6602 -68.8648 -36.6978 -36.2229 -36.1420 -35.7910 -35.4092 -35.2892
   -21.3472 -21.2799 -21.2782 -21.2650 -21.2596 -21.2579 -21.2556 -20.5803
   -20.5293 -20.5168 -20.5119 -20.4990 -20.4896 -20.4803 -19.6103 -18.6991
   -12.2346  -8.5194  -6.7239  -6.2313  -5.9112  -5.5717  -5.4301  -4.6976
    -3.8172  -2.9779  -1.5739

          k =-0.4791-0.0924 0.0000 ( 15888 PWs)   bands (ev):

   -69.6602 -68.8648 -36.6268 -36.2259 -36.2117 -35.7353 -35.4078 -35.3574
   -21.3422 -21.2794 -21.2751 -21.2703 -21.2637 -21.2605 -21.2566 -20.5768
   -20.5272 -20.5169 -20.5151 -20.5007 -20.4925 -20.4800 -19.5815 -18.6853
   -12.2755  -8.0000  -6.9087  -6.4190  -5.8885  -5.6150  -5.3569  -4.5136
    -4.3352  -3.1035  -1.2195

          k =-0.4792 0.0000 0.0000 ( 15906 PWs)   bands (ev):

   -69.6601 -68.8647 -36.5784 -36.2755 -36.2116 -35.6976 -35.4070 -35.4017
   -21.3393 -21.2792 -21.2752 -21.2700 -21.2685 -21.2610 -21.2567 -20.5749
   -20.5260 -20.5171 -20.5169 -20.5013 -20.4941 -20.4799 -19.5671 -18.6783
   -12.2948  -7.5853  -7.0131  -6.4759  -6.2563  -5.5033  -5.1171  -4.8978
    -4.1331  -3.2854  -1.0462

          k =-0.4792 0.0924 0.0000 ( 15899 PWs)   bands (ev):

   -69.6601 -68.8647 -36.6278 -36.2251 -36.2123 -35.7354 -35.4076 -35.3585
   -21.3423 -21.2793 -21.2757 -21.2708 -21.2631 -21.2603 -21.2563 -20.5769
   -20.5272 -20.5169 -20.5150 -20.5007 -20.4926 -20.4799 -19.5814 -18.6851
   -12.2745  -7.9990  -6.9113  -6.4191  -5.8892  -5.6153  -5.3601  -4.5146
    -4.3381  -3.1008  -1.2172

          k =-0.4793 0.1848 0.0000 ( 15904 PWs)   bands (ev):

   -69.6600 -68.8646 -36.6994 -36.2223 -36.1425 -35.7914 -35.4089 -35.2910
   -21.3474 -21.2799 -21.2789 -21.2658 -21.2597 -21.2575 -21.2545 -20.5805
   -20.5293 -20.5169 -20.5119 -20.4989 -20.4898 -20.4801 -19.6101 -18.6987
   -12.2328  -8.5180  -6.7272  -6.2319  -5.9149  -5.5730  -5.4328  -4.7018
    -3.8192  -2.9752  -1.5709

          k =-0.4785-0.8317 0.0000 ( 15918 PWs)   bands (ev):

   -69.6600 -68.8646 -36.7284 -36.2259 -36.1095 -35.8139 -35.4096 -35.2625
   -21.3497 -21.2810 -21.2792 -21.2645 -21.2586 -21.2564 -21.2521 -20.5822
   -20.5302 -20.5169 -20.5107 -20.4978 -20.4883 -20.4803 -19.6244 -18.7055
   -12.2110  -8.7203  -6.5185  -6.2682  -6.0732  -5.6130  -5.1458  -4.9686
    -3.3699  -3.0710  -1.7685

     highest occupied level (ev):    -0.2678

!    total energy              =   -1438.35616894 Ry
     estimated scf accuracy    <          9.2E-15 Ry

     The total energy is the sum of the following terms:
     one-electron contribution =  -14107.01879064 Ry
     hartree contribution      =    7084.40945680 Ry
     xc contribution           =    -153.69902182 Ry
     ewald contribution        =    5737.95218672 Ry

     convergence has been achieved in  67 iterations

     negative rho (up, down):  3.263E-04 0.000E+00

     Forces acting on atoms (cartesian axes, Ry/au):

     atom    1 type  2   force =     0.00001272   -0.00001354   -0.00001833
     atom    2 type  1   force =    -0.00001565    0.00000713   -0.00002581
     atom    3 type  1   force =    -0.00002303   -0.00016340    0.00001193
     atom    4 type  3   force =     0.00005543    0.00017165    0.00006780
     atom    5 type  3   force =    -0.00002948   -0.00000184   -0.00003558

     Total force =     0.000261     Total SCF correction =     0.000001


     Computing stress (Cartesian axis) and pressure


     negative rho (up, down):  3.263E-04 0.000E+00
          total   stress  (Ry/bohr**3)                   (kbar)     P=       -0.36
  -0.00000259  -0.00000078   0.00000023           -0.38       -0.12        0.03
  -0.00000078   0.00000199   0.00000023           -0.12        0.29        0.03
   0.00000023   0.00000023  -0.00000669            0.03        0.03       -0.98


     Writing output data file /scratch/as3359/Ta2CO2_loop/Ta.save/
 
     init_run     :     50.57s CPU     30.12s WALL (       2 calls)
     electrons    :   7081.90s CPU   3648.07s WALL (       4 calls)
     update_pot   :     27.45s CPU     16.79s WALL (       2 calls)
     forces       :     43.59s CPU     22.30s WALL (       4 calls)
     stress       :    126.01s CPU     64.57s WALL (       4 calls)

     Called by init_run:
     wfcinit      :     25.04s CPU     12.84s WALL (       2 calls)
     potinit      :      7.02s CPU      3.54s WALL (       2 calls)
     hinit0       :     16.64s CPU     12.47s WALL (       2 calls)

     Called by electrons:
     c_bands      :   5790.18s CPU   2938.78s WALL (     216 calls)
     sum_band     :   1069.52s CPU    572.88s WALL (     216 calls)
     v_of_rho     :     31.48s CPU     16.13s WALL (     218 calls)
     newd         :    181.05s CPU    115.35s WALL (     218 calls)
     mix_rho      :      8.92s CPU      4.60s WALL (     216 calls)

     Called by c_bands:
     init_us_2    :    138.22s CPU     69.25s WALL (   32708 calls)
     cegterg      :   5348.21s CPU   2715.95s WALL (   15984 calls)

     Called by *egterg:
     cdiaghg      :    193.27s CPU     98.85s WALL (   92585 calls)
     h_psi        :   4113.35s CPU   2094.06s WALL (   93029 calls)
     s_psi        :    215.80s CPU    108.24s WALL (   93029 calls)
     g_psi        :     28.68s CPU     14.43s WALL (   76897 calls)

     Called by h_psi:
     h_psi:calbec :    195.30s CPU     98.21s WALL (   93029 calls)
     vloc_psi     :   3630.32s CPU   1851.30s WALL (   93029 calls)
     add_vuspsi   :    255.90s CPU    128.28s WALL (   93029 calls)

     General routines
     calbec       :    253.99s CPU    127.75s WALL (  110493 calls)
     fft          :     36.36s CPU     18.58s WALL (    2930 calls)
     ffts         :      1.40s CPU      0.73s WALL (     434 calls)
     fftw         :   3683.90s CPU   1880.21s WALL ( 3532136 calls)
     interpolate  :      2.41s CPU      1.24s WALL (     218 calls)
 
     Parallel routines
 
     PWSCF        :      2h 2m CPU      1h 3m WALL

 
   This run was terminated on:  15: 2:25   7Apr2022            

=------------------------------------------------------------------------------=
   JOB DONE.
=------------------------------------------------------------------------------=
