
     Program PWSCF v.6.8 starts on  6Apr2022 at 17:57: 9 

     This program is part of the open-source Quantum ESPRESSO suite
     for quantum simulation of materials; please cite
         "P. Giannozzi et al., J. Phys.:Condens. Matter 21 395502 (2009);
         "P. Giannozzi et al., J. Phys.:Condens. Matter 29 465901 (2017);
         "P. Giannozzi et al., J. Chem. Phys. 152 154105 (2020);
          URL http://www.quantum-espresso.org", 
     in publications or presentations arising from this work. More details at
     http://www.quantum-espresso.org/quote

     Parallel version (MPI & OpenMP), running on       4 processor cores
     Number of MPI processes:                 2
     Threads/MPI process:                     2

     MPI processes distributed on     1 nodes
     R & G space division:  proc/nbgrp/npool/nimage =       2
     125228 MiB available memory on the printing compute node when the environment starts
 
     Reading input from Ta2CF.vcrelax.in

     Current dimensions of program PWSCF are:
     Max number of different atomic species (ntypx) = 10
     Max number of k-points (npk) =  40000
     Max angular momentum in pseudopotentials (lmaxx) =  4
     file Ta.pbesol-spfn-rrkjus_psl.1.0.0.UPF: wavefunction(s)  5S 5P renormalized
     file F.pbesol-n-rrkjus_psl.1.0.0.UPF: wavefunction(s)  2S renormalized
     Message from routine setup:
     using ibrav=0 with symmetry is DISCOURAGED, use correct ibrav instead

     Subspace diagonalization in iterative solution of the eigenvalue problem:
     a serial algorithm will be used

 
     Parallelization info
     --------------------
     sticks:   dense  smooth     PW     G-vecs:    dense   smooth      PW
     Min         696     297     93               127848    36401    5847
     Max         697     298     94               127859    36410    5850
     Sum        1393     595    187               255707    72811   11697
 
     Using Slab Decomposition
 


     bravais-lattice index     =            0
     lattice parameter (alat)  =       5.8997  a.u.
     unit-cell volume          =    1029.4026 (a.u.)^3
     number of atoms/cell      =            4
     number of atomic types    =            3
     number of electrons       =        65.00
     number of Kohn-Sham states=           40
     kinetic-energy cutoff     =      65.0000  Ry
     charge density cutoff     =     600.0000  Ry
     scf convergence threshold =      1.0E-07
     mixing beta               =       0.7000
     number of iterations used =            8  plain     mixing
     energy convergence thresh.=      1.0E-04
     force convergence thresh. =      1.0E-03
     press convergence thresh. =      5.0E-01
     Exchange-correlation= PBESOL
                           (   1   4  10   8   0   0   0)
     nstep                     =           50


     celldm(1)=   5.899700  celldm(2)=   0.000000  celldm(3)=   0.000000
     celldm(4)=   0.000000  celldm(5)=   0.000000  celldm(6)=   0.000000

     crystal axes: (cart. coord. in units of alat)
               a(1) = (   0.982216   0.000000   0.000000 )  
               a(2) = (  -0.491108   0.850624   0.000000 )  
               a(3) = (   0.000000   0.000000   6.000000 )  

     reciprocal axes: (cart. coord. in units 2 pi/alat)
               b(1) = (  1.018106  0.587804  0.000000 )  
               b(2) = (  0.000000  1.175608  0.000000 )  
               b(3) = (  0.000000  0.000000  0.166667 )  


     PseudoPot. # 1 for Ta read from file:
     /shared/home/as3359/pseudo/Ta.pbesol-spfn-rrkjus_psl.1.0.0.UPF
     MD5 check sum: f099565ffaca9b150a52e9412a28e20b
     Pseudo is Ultrasoft + core correction, Zval = 27.0
     Generated using &quot;atomic&quot; code by A. Dal Corso  v.6.3
     Using radial grid of 1273 points,  8 beta functions with: 
                l(1) =   0
                l(2) =   0
                l(3) =   1
                l(4) =   1
                l(5) =   2
                l(6) =   2
                l(7) =   3
                l(8) =   3
     Q(r) pseudized with 0 coefficients 


     PseudoPot. # 2 for C  read from file:
     /shared/home/as3359/pseudo/C.pbesol-n-rrkjus_psl.1.0.0.UPF
     MD5 check sum: 05995be603a8a7c99da3dc4413f31573
     Pseudo is Ultrasoft + core correction, Zval =  4.0
     Generated using &quot;atomic&quot; code by A. Dal Corso  v.6.3MaX
     Using radial grid of 1073 points,  4 beta functions with: 
                l(1) =   0
                l(2) =   0
                l(3) =   1
                l(4) =   1
     Q(r) pseudized with 0 coefficients 


     PseudoPot. # 3 for F  read from file:
     /shared/home/as3359/pseudo/F.pbesol-n-rrkjus_psl.1.0.0.UPF
     MD5 check sum: 56b7518b93d9f54031eb04610776f7c7
     Pseudo is Ultrasoft + core correction, Zval =  7.0
     Generated using &quot;atomic&quot; code by A. Dal Corso  v.6.3MaX
     Using radial grid of 1105 points,  4 beta functions with: 
                l(1) =   0
                l(2) =   0
                l(3) =   1
                l(4) =   1
     Q(r) pseudized with 0 coefficients 


     atomic species   valence    mass     pseudopotential
        Ta            27.00   180.94788     Ta( 1.00)
        C              4.00    12.01070     C ( 1.00)
        F              7.00    18.99840     F ( 1.00)

      6 Sym. Ops. (no inversion) found



   Cartesian axes

     site n.     atom                  positions (alat units)
         1           Ta  tau(   1) = (  -0.0000000   0.5670824   0.2560246  )
         2           C   tau(   2) = (   0.0000000   0.0000000   0.5417101  )
         3           Ta  tau(   3) = (   0.4911078   0.2835412   0.8514717  )
         4           F   tau(   4) = (   0.0000000   0.0000000   1.3000316  )

     number of k points=    19  Marzari-Vanderbilt smearing, width (Ry)=  0.0050
                       cart. coord. in units 2pi/alat
        k(    1) = (   0.0000000   0.0000000   0.0000000), wk =   0.0138889
        k(    2) = (   0.0000000   0.0979673   0.0000000), wk =   0.0833333
        k(    3) = (   0.0000000   0.1959347   0.0000000), wk =   0.0833333
        k(    4) = (   0.0000000   0.2939020   0.0000000), wk =   0.0833333
        k(    5) = (   0.0000000   0.3918694   0.0000000), wk =   0.0833333
        k(    6) = (   0.0000000   0.4898367   0.0000000), wk =   0.0833333
        k(    7) = (   0.0000000  -0.5878040   0.0000000), wk =   0.0416667
        k(    8) = (   0.0848422   0.1469510   0.0000000), wk =   0.0833333
        k(    9) = (   0.0848422   0.2449183   0.0000000), wk =   0.1666667
        k(   10) = (   0.0848422   0.3428857   0.0000000), wk =   0.1666667
        k(   11) = (   0.0848422   0.4408530   0.0000000), wk =   0.1666667
        k(   12) = (   0.0848422   0.5388204   0.0000000), wk =   0.1666667
        k(   13) = (   0.1696844   0.2939020   0.0000000), wk =   0.0833333
        k(   14) = (   0.1696844   0.3918694   0.0000000), wk =   0.1666667
        k(   15) = (   0.1696844   0.4898367   0.0000000), wk =   0.1666667
        k(   16) = (   0.1696844   0.5878040   0.0000000), wk =   0.0833333
        k(   17) = (   0.2545266   0.4408530   0.0000000), wk =   0.0833333
        k(   18) = (   0.2545266   0.5388204   0.0000000), wk =   0.1666667
        k(   19) = (   0.3393688   0.5878040   0.0000000), wk =   0.0277778

     Dense  grid:   255707 G-vectors     FFT dimensions: (  45,  45, 288)

     Smooth grid:    72811 G-vectors     FFT dimensions: (  30,  30, 192)

     Estimated max dynamical RAM per process >       1.27 GB

     Estimated total dynamical RAM >       2.55 GB

     Initial potential from superposition of free atoms

     starting charge   64.99842, renormalised to   65.00000

     negative rho (up, down):  8.407E-05 0.000E+00
     Starting wfcs are   42 randomized atomic wfcs

     total cpu time spent up to now is       11.5 secs

     Self-consistent Calculation

     iteration #  1     ecut=    65.00 Ry     beta= 0.70
     CG style diagonalization
     ethr =  1.00E-02,  avg # of iterations =  2.3

     total cpu time spent up to now is       16.6 secs

     total energy              =   -1420.83070160 Ry
     estimated scf accuracy    <       1.68524424 Ry

     iteration #  2     ecut=    65.00 Ry     beta= 0.70
     CG style diagonalization
     ethr =  2.59E-03,  avg # of iterations =  3.9

     negative rho (up, down):  8.238E-06 0.000E+00

     total cpu time spent up to now is       23.2 secs

     total energy              =   -1420.39128864 Ry
     estimated scf accuracy    <       6.87438229 Ry

     iteration #  3     ecut=    65.00 Ry     beta= 0.70
     CG style diagonalization
     ethr =  2.59E-03,  avg # of iterations =  3.7

     negative rho (up, down):  1.427E-06 0.000E+00

     total cpu time spent up to now is       29.4 secs

     total energy              =   -1421.11212478 Ry
     estimated scf accuracy    <       8.86026507 Ry

     iteration #  4     ecut=    65.00 Ry     beta= 0.70
     CG style diagonalization
     ethr =  2.59E-03,  avg # of iterations =  3.2

     negative rho (up, down):  2.051E-07 0.000E+00

     total cpu time spent up to now is       35.1 secs

     total energy              =   -1421.79194103 Ry
     estimated scf accuracy    <       0.24024864 Ry

     iteration #  5     ecut=    65.00 Ry     beta= 0.70
     CG style diagonalization
     ethr =  3.70E-04,  avg # of iterations =  3.6

     negative rho (up, down):  1.964E-06 0.000E+00

     total cpu time spent up to now is       41.2 secs

     total energy              =   -1421.83007622 Ry
     estimated scf accuracy    <       0.03139917 Ry

     iteration #  6     ecut=    65.00 Ry     beta= 0.70
     CG style diagonalization
     ethr =  4.83E-05,  avg # of iterations =  3.6

     negative rho (up, down):  4.128E-05 0.000E+00

     total cpu time spent up to now is       47.4 secs

     total energy              =   -1421.83084315 Ry
     estimated scf accuracy    <       0.01594338 Ry

     iteration #  7     ecut=    65.00 Ry     beta= 0.70
     CG style diagonalization
     ethr =  2.45E-05,  avg # of iterations =  3.5

     negative rho (up, down):  8.144E-05 0.000E+00

     total cpu time spent up to now is       53.4 secs

     total energy              =   -1421.83270493 Ry
     estimated scf accuracy    <       0.00077270 Ry

     iteration #  8     ecut=    65.00 Ry     beta= 0.70
     CG style diagonalization
     c_bands:  1 eigenvalues not converged
     c_bands:  1 eigenvalues not converged
     c_bands:  1 eigenvalues not converged
     c_bands:  1 eigenvalues not converged
     c_bands:  1 eigenvalues not converged
     c_bands:  1 eigenvalues not converged
     ethr =  1.19E-06,  avg # of iterations =  4.9

     negative rho (up, down):  8.111E-05 0.000E+00

     total cpu time spent up to now is       61.4 secs

     total energy              =   -1421.83310897 Ry
     estimated scf accuracy    <       0.00046255 Ry

     iteration #  9     ecut=    65.00 Ry     beta= 0.70
     CG style diagonalization
     c_bands:  1 eigenvalues not converged
     ethr =  7.12E-07,  avg # of iterations =  3.5

     negative rho (up, down):  8.335E-05 0.000E+00

     total cpu time spent up to now is       67.5 secs

     total energy              =   -1421.83312142 Ry
     estimated scf accuracy    <       0.00010802 Ry

     iteration # 10     ecut=    65.00 Ry     beta= 0.70
     CG style diagonalization
     ethr =  1.66E-07,  avg # of iterations =  3.7

     negative rho (up, down):  8.313E-05 0.000E+00

     total cpu time spent up to now is       73.8 secs

     total energy              =   -1421.83315699 Ry
     estimated scf accuracy    <       0.00000591 Ry

     iteration # 11     ecut=    65.00 Ry     beta= 0.70
     CG style diagonalization
     ethr =  9.10E-09,  avg # of iterations =  4.4

     negative rho (up, down):  8.267E-05 0.000E+00

     total cpu time spent up to now is       81.0 secs

     total energy              =   -1421.83316407 Ry
     estimated scf accuracy    <       0.00000663 Ry

     iteration # 12     ecut=    65.00 Ry     beta= 0.70
     CG style diagonalization
     ethr =  9.10E-09,  avg # of iterations =  3.6

     negative rho (up, down):  8.264E-05 0.000E+00

     total cpu time spent up to now is       87.1 secs

     total energy              =   -1421.83316541 Ry
     estimated scf accuracy    <       0.00000068 Ry

     iteration # 13     ecut=    65.00 Ry     beta= 0.70
     CG style diagonalization
     ethr =  1.05E-09,  avg # of iterations =  4.2

     negative rho (up, down):  8.275E-05 0.000E+00

     total cpu time spent up to now is       94.0 secs

     total energy              =   -1421.83316586 Ry
     estimated scf accuracy    <       0.00000016 Ry

     iteration # 14     ecut=    65.00 Ry     beta= 0.70
     CG style diagonalization
     ethr =  2.52E-10,  avg # of iterations =  4.4

     negative rho (up, down):  8.278E-05 0.000E+00

     total cpu time spent up to now is      101.1 secs

     End of self-consistent calculation

          k = 0.0000 0.0000 0.0000 (  9133 PWs)   bands (ev):

   -65.5144 -64.5359 -32.9061 -31.8947 -31.8947 -31.0341 -30.9009 -30.9009
   -22.5302 -17.0988 -17.0529 -17.0529 -17.0477 -17.0477 -17.0017 -16.9286
   -16.1878 -16.1197 -16.1197 -16.1091 -16.1091 -16.1022 -16.0251 -10.5733
    -6.1877  -4.2101  -4.2101  -3.4867  -3.4867  -2.7910   1.6038   1.6038
     2.0147   3.8767   5.0240   5.0240   5.5294   7.0289   7.4176   8.0095

          k = 0.0000 0.0980 0.0000 (  9157 PWs)   bands (ev):

   -65.5097 -64.5340 -32.8949 -31.9816 -31.9159 -31.0269 -30.9288 -30.9047
   -22.5142 -17.0970 -17.0542 -17.0524 -17.0482 -17.0468 -16.9987 -16.9319
   -16.1851 -16.1211 -16.1195 -16.1106 -16.1080 -16.0985 -16.0283 -10.4576
    -6.0172  -4.3589  -4.1273  -3.6102  -3.4808  -2.7026   1.1690   1.7247
     2.3660   4.0806   4.3288   5.0651   5.7084   7.2670   7.7240   8.1226

          k = 0.0000 0.1959 0.0000 (  9151 PWs)   bands (ev):

   -65.4970 -64.5289 -32.8675 -32.1942 -31.9726 -31.0795 -30.9482 -30.9158
   -22.4731 -17.0920 -17.0581 -17.0521 -17.0480 -17.0430 -16.9907 -16.9408
   -16.1783 -16.1252 -16.1195 -16.1121 -16.1045 -16.0899 -16.0368 -10.1677
    -5.6323  -4.6673  -3.9957  -3.7561  -3.3747  -2.5388   0.5484   2.0828
     2.5946   3.7803   4.2834   5.2559   5.9859   7.7908   8.0519   8.3605

          k = 0.0000 0.2939 0.0000 (  9135 PWs)   bands (ev):

   -65.4796 -64.5219 -32.8426 -32.4470 -32.0476 -31.1854 -30.9543 -30.9328
   -22.4224 -17.0860 -17.0633 -17.0527 -17.0458 -17.0370 -16.9797 -16.9522
   -16.1700 -16.1309 -16.1205 -16.1122 -16.0988 -16.0785 -16.0477  -9.8531
    -5.4459  -4.8378  -4.0156  -3.6257  -3.0454  -2.2706  -0.0103   2.3185
     2.6701   3.9151   4.4251   5.7026   6.5298   8.5225   8.5460   8.6778

          k = 0.0000 0.3919 0.0000 (  9143 PWs)   bands (ev):

   -65.4620 -64.5151 -32.8538 -32.6537 -32.1201 -31.2622 -30.9873 -30.9514
   -22.3772 -17.0811 -17.0675 -17.0537 -17.0420 -17.0307 -16.9687 -16.9629
   -16.1629 -16.1365 -16.1222 -16.1108 -16.0928 -16.0667 -16.0578  -9.6590
    -5.5258  -4.8658  -4.1192  -3.3346  -2.6600  -1.7506  -0.3875   2.2201
     3.4844   4.0152   4.9517   6.3497   6.8395   8.5660   8.9607   9.5265

          k = 0.0000 0.4898 0.0000 (  9093 PWs)   bands (ev):

   -65.4490 -64.5101 -32.9299 -32.7378 -32.1718 -31.2863 -31.0356 -30.9659
   -22.3470 -17.0789 -17.0692 -17.0547 -17.0382 -17.0260 -16.9704 -16.9605
   -16.1585 -16.1404 -16.1238 -16.1090 -16.0880 -16.0649 -16.0577  -9.6006
    -5.5984  -4.8870  -4.2103  -3.1541  -2.3881  -1.2364  -0.5386   2.5375
     4.3528   4.4578   5.3240   6.6704   6.7067   8.6176   9.0839   9.9188

          k = 0.0000-0.5878 0.0000 (  9088 PWs)   bands (ev):

   -65.4442 -64.5083 -32.9742 -32.7531 -32.1905 -31.2844 -31.0617 -30.9714
   -22.3365 -17.0787 -17.0693 -17.0551 -17.0367 -17.0242 -16.9730 -16.9574
   -16.1571 -16.1418 -16.1244 -16.1081 -16.0862 -16.0674 -16.0544  -9.5962
    -5.6220  -4.8984  -4.2451  -3.0981  -2.2939  -1.0493  -0.5648   2.8333
     4.6201   5.0893   5.3556   6.5115   6.5680   8.8160   9.0481   9.3225

          k = 0.0848 0.1470 0.0000 (  9149 PWs)   bands (ev):

   -65.5011 -64.5305 -32.8754 -32.1234 -31.9627 -31.0498 -30.9483 -30.9161
   -22.4857 -17.0935 -17.0566 -17.0526 -17.0479 -17.0444 -16.9932 -16.9380
   -16.1804 -16.1238 -16.1195 -16.1119 -16.1056 -16.0925 -16.0342 -10.2539
    -5.7246  -4.5956  -4.0257  -3.7673  -3.3930  -2.5855   0.7362   1.8927
     2.6363   3.8926   4.2881   5.0504   5.8851   7.6743   8.0098   8.1287

          k = 0.0848 0.2449 0.0000 (  9141 PWs)   bands (ev):

   -65.4860 -64.5245 -32.8486 -32.3405 -32.0455 -31.1311 -30.9481 -30.9404
   -22.4401 -17.0879 -17.0610 -17.0532 -17.0467 -17.0392 -16.9838 -16.9482
   -16.1727 -16.1285 -16.1203 -16.1125 -16.1009 -16.0827 -16.0439  -9.9472
    -5.3648  -4.8611  -4.0377  -3.8142  -3.0924  -2.3850   0.2039   2.1638
     2.6198   4.0661   4.3134   5.2194   6.3556   8.2643   8.3687   8.6445

          k = 0.0848 0.3429 0.0000 (  9120 PWs)   bands (ev):

   -65.4684 -64.5176 -32.8375 -32.5603 -32.1335 -31.2170 -30.9769 -30.9539
   -22.3926 -17.0821 -17.0655 -17.0540 -17.0439 -17.0331 -16.9729 -16.9594
   -16.1648 -16.1339 -16.1218 -16.1118 -16.0952 -16.0712 -16.0545  -9.6893
    -5.3594  -4.8848  -4.1601  -3.5363  -2.7591  -1.9704  -0.2483   2.2028
     2.8986   4.2493   4.7111   5.7905   6.8710   8.3713   9.1421   9.4015

          k = 0.0848 0.4409 0.0000 (  9109 PWs)   bands (ev):

   -65.4531 -64.5117 -32.8783 -32.7001 -32.2027 -31.2682 -31.0148 -30.9737
   -22.3554 -17.0783 -17.0683 -17.0550 -17.0401 -17.0278 -16.9690 -16.9629
   -16.1589 -16.1384 -16.1236 -16.1100 -16.0902 -16.0641 -16.0600  -9.5665
    -5.4644  -4.8806  -4.2603  -3.2113  -2.5041  -1.4173  -0.4730   2.2530
     3.5033   4.6809   5.1530   6.3440   7.0961   8.3888   9.4524  10.0036

          k = 0.0848 0.5388 0.0000 (  9072 PWs)   bands (ev):

   -65.4442 -64.5083 -32.9445 -32.7401 -32.2399 -31.2825 -31.0447 -30.9893
   -22.3354 -17.0772 -17.0688 -17.0557 -17.0372 -17.0248 -16.9740 -16.9575
   -16.1559 -16.1409 -16.1249 -16.1085 -16.0871 -16.0686 -16.0542  -9.5395
    -5.5152  -4.8954  -4.3204  -3.0510  -2.3453  -1.0837  -0.4966   2.5942
     3.8584   5.2137   5.4942   6.5408   6.8286   8.6874   9.2025   9.6503

          k = 0.1697 0.2939 0.0000 (  9129 PWs)   bands (ev):

   -65.4708 -64.5185 -32.8330 -32.4993 -32.1696 -31.1787 -30.9937 -30.9509
   -22.3981 -17.0822 -17.0643 -17.0548 -17.0447 -17.0339 -16.9745 -16.9583
   -16.1653 -16.1326 -16.1220 -16.1123 -16.0961 -16.0728 -16.0535  -9.6917
    -5.0874  -5.0189  -4.2510  -3.6970  -2.7449  -2.0366  -0.1714   2.1473
     2.7554   4.2919   4.7622   5.4361   6.8212   8.2537   9.0377   9.2992

          k = 0.1697 0.3919 0.0000 (  9104 PWs)   bands (ev):

   -65.4555 -64.5126 -32.8405 -32.6309 -32.2857 -31.2265 -31.0399 -30.9662
   -22.3594 -17.0768 -17.0670 -17.0561 -17.0418 -17.0290 -16.9694 -16.9639
   -16.1582 -16.1363 -16.1241 -16.1111 -16.0918 -16.0654 -16.0603  -9.5058
    -5.2389  -4.8378  -4.4087  -3.3715  -2.5449  -1.5261  -0.4098   2.0279
     3.0787   4.5240   5.2702   6.1469   7.2223   8.0953   9.7706  10.0972

          k = 0.1697 0.4898 0.0000 (  9083 PWs)   bands (ev):

   -65.4443 -64.5083 -32.8769 -32.7016 -32.3581 -31.2698 -31.0509 -30.9952
   -22.3330 -17.0738 -17.0678 -17.0572 -17.0387 -17.0259 -16.9759 -16.9576
   -16.1533 -16.1388 -16.1260 -16.1092 -16.0890 -16.0709 -16.0541  -9.4218
    -5.3100  -4.8395  -4.4632  -3.0322  -2.4228  -1.1468  -0.3580   2.0883
     3.1363   5.1186   5.4684   6.6642   7.2281   8.3183   9.3914  10.4985

          k = 0.1697 0.5878 0.0000 (  9072 PWs)   bands (ev):

   -65.4401 -64.5067 -32.8995 -32.7198 -32.3816 -31.2878 -31.0347 -31.0242
   -22.3237 -17.0733 -17.0676 -17.0577 -17.0372 -17.0250 -16.9784 -16.9551
   -16.1516 -16.1396 -16.1269 -16.1082 -16.0880 -16.0734 -16.0513  -9.4026
    -5.3263  -4.8602  -4.4796  -2.9046  -2.3716  -1.0370  -0.2538   2.3327
     2.9513   5.1201   5.9661   6.5297   7.1995   8.4961   9.3729  10.3028

          k = 0.2545 0.4409 0.0000 (  9115 PWs)   bands (ev):

   -65.4443 -64.5083 -32.8397 -32.6606 -32.4415 -31.2576 -31.0759 -30.9826
   -22.3318 -17.0717 -17.0673 -17.0584 -17.0396 -17.0265 -16.9769 -16.9577
   -16.1519 -16.1375 -16.1269 -16.1098 -16.0900 -16.0720 -16.0541  -9.3606
    -5.2404  -4.6908  -4.5935  -3.0766  -2.4384  -1.1755  -0.2820   1.8122
     2.9078   5.0789   5.3660   6.7299   7.6665   7.8678   9.4499  10.8573

          k = 0.2545 0.5388 0.0000 (  9076 PWs)   bands (ev):

   -65.4378 -64.5058 -32.8197 -32.6859 -32.5366 -31.3001 -31.0657 -31.0045
   -22.3164 -17.0692 -17.0664 -17.0601 -17.0377 -17.0255 -16.9814 -16.9539
   -16.1481 -16.1375 -16.1291 -16.1082 -16.0895 -16.0767 -16.0497  -9.2866
    -5.2323  -4.7970  -4.5293  -2.8016  -2.4077  -1.0569   0.1246   1.7005
     2.5257   5.0308   5.7269   6.5774   7.7991   8.2918   9.6306  10.9466

          k = 0.3394 0.5878 0.0000 (  9054 PWs)   bands (ev):

   -65.4354 -64.5049 -32.7202 -32.6824 -32.6755 -31.3210 -31.0647 -31.0080
   -22.3102 -17.0669 -17.0649 -17.0623 -17.0373 -17.0257 -16.9835 -16.9526
   -16.1460 -16.1360 -16.1311 -16.1076 -16.0901 -16.0790 -16.0481  -9.2317
    -5.1981  -4.8593  -4.4729  -2.6533  -2.4375  -1.0511   0.8341   0.9822
     2.3332   4.9192   5.6634   6.5283   8.0361   8.3771  10.3410  10.6005

     the Fermi energy is     2.9330 ev

!    total energy              =   -1421.83316600 Ry
     estimated scf accuracy    <       0.00000007 Ry
     smearing contrib. (-TS)   =      -0.00013335 Ry
     internal energy E=F+TS    =   -1421.83303265 Ry

     The total energy is F=E-TS. E is the sum of the following terms:
     one-electron contribution =   -7476.53710664 Ry
     hartree contribution      =    3777.06492798 Ry
     xc contribution           =    -149.04369664 Ry
     ewald contribution        =    2426.68284265 Ry

     convergence has been achieved in  14 iterations

     negative rho (up, down):  8.278E-05 0.000E+00

     Forces acting on atoms (cartesian axes, Ry/au):

     atom    1 type  1   force =     0.00000000    0.00000000   -0.36818199
     atom    2 type  2   force =     0.00000000    0.00000000    0.00515418
     atom    3 type  1   force =     0.00000000    0.00000000    0.28962208
     atom    4 type  3   force =     0.00000000    0.00000000    0.07340573

     Total force =     0.474188     Total SCF correction =     0.003857


     Computing stress (Cartesian axis) and pressure


     negative rho (up, down):  8.278E-05 0.000E+00
          total   stress  (Ry/bohr**3)                   (kbar)     P=      177.87
   0.00110800  -0.00000000   0.00000000          162.99       -0.00        0.00
  -0.00000000   0.00110800   0.00000000           -0.00      162.99        0.00
   0.00000000  -0.00000000   0.00141143            0.00       -0.00      207.63


     BFGS Geometry Optimization
     Energy error            =      0.0E+00 Ry
     Gradient error          =      3.7E-01 Ry/Bohr
     Cell gradient error     =      1.6E+02 kbar

     number of scf cycles    =   1
     number of bfgs steps    =   0

     enthalpy           new  =   -1421.8331660038 Ry

     new trust radius        =       0.3681819887 bohr
     new conv_thr            =       0.0000001000 Ry

     new unit-cell volume =   1087.22142 a.u.^3 (   161.10959 Ang^3 )
     density =      4.04963 g/cm^3

CELL_PARAMETERS (alat=  5.89970000)
   1.009422931  -0.000000000   0.000000000
  -0.504711465   0.874185902   0.000000000
   0.000000000   0.000000000   6.000000000

ATOMIC_POSITIONS (crystal)
Ta            0.3333333330        0.6666666670        0.0322696201    0   0   1
C             0.0000000000        0.0000000000        0.0904306211    0   0   1
Ta            0.6666666670        0.3333333330        0.1500937859    0   0   1
F             0.0000000000        0.0000000000        0.2187456459



     Writing output data file /scratch/as3359/Ta2CF-VCrelax-5/Ta.save/
     NEW-OLD atomic charge density approx. for the potential

     negative rho (up, down):  5.682E-05 0.000E+00
     extrapolated charge   68.45664, renormalised to   65.00000

     total cpu time spent up to now is      130.2 secs

     Self-consistent Calculation

     iteration #  1     ecut=    65.00 Ry     beta= 0.70
     CG style diagonalization
     c_bands:  2 eigenvalues not converged
     c_bands:  4 eigenvalues not converged
     c_bands:  5 eigenvalues not converged
     c_bands:  4 eigenvalues not converged
     c_bands:  2 eigenvalues not converged
     c_bands:  5 eigenvalues not converged
     c_bands:  4 eigenvalues not converged
     c_bands:  4 eigenvalues not converged
     c_bands:  2 eigenvalues not converged
     c_bands:  5 eigenvalues not converged
     c_bands:  5 eigenvalues not converged
     c_bands:  5 eigenvalues not converged
     c_bands:  3 eigenvalues not converged
     c_bands:  5 eigenvalues not converged
     c_bands:  3 eigenvalues not converged
     c_bands:  4 eigenvalues not converged
     c_bands:  5 eigenvalues not converged
     c_bands:  3 eigenvalues not converged
     c_bands:  1 eigenvalues not converged
     ethr =  1.00E-06,  avg # of iterations = 70.5

     total cpu time spent up to now is      220.4 secs

     total energy              =    7446.38676418 Ry
     estimated scf accuracy    <    9591.20625542 Ry

     iteration #  2     ecut=    65.00 Ry     beta= 0.70
     CG style diagonalization
     c_bands:  4 eigenvalues not converged
     c_bands:  5 eigenvalues not converged
     c_bands:  2 eigenvalues not converged
     c_bands:  3 eigenvalues not converged
     c_bands:  1 eigenvalues not converged
     c_bands:  5 eigenvalues not converged
     c_bands:  4 eigenvalues not converged
     c_bands:  3 eigenvalues not converged
     c_bands:  1 eigenvalues not converged
     c_bands:  1 eigenvalues not converged
     c_bands:  5 eigenvalues not converged
     c_bands:  3 eigenvalues not converged
     c_bands:  5 eigenvalues not converged
     c_bands:  2 eigenvalues not converged
     ethr =  1.00E-02,  avg # of iterations = 56.9

     negative rho (up, down):  1.563E-06 0.000E+00

     total cpu time spent up to now is      293.3 secs

     total energy              =   -3078.94224036 Ry
     estimated scf accuracy    <    5668.00418150 Ry

     iteration #  3     ecut=    65.00 Ry     beta= 0.70
     CG style diagonalization
     c_bands:  4 eigenvalues not converged
     c_bands:  1 eigenvalues not converged
     c_bands:  1 eigenvalues not converged
     c_bands:  2 eigenvalues not converged
     c_bands:  2 eigenvalues not converged
     c_bands:  3 eigenvalues not converged
     c_bands:  3 eigenvalues not converged
     c_bands:  5 eigenvalues not converged
     c_bands:  5 eigenvalues not converged
     c_bands:  2 eigenvalues not converged
     c_bands:  3 eigenvalues not converged
     c_bands:  5 eigenvalues not converged
     c_bands:  5 eigenvalues not converged
     c_bands:  4 eigenvalues not converged
     c_bands:  3 eigenvalues not converged
     c_bands:  2 eigenvalues not converged
     c_bands:  3 eigenvalues not converged
     c_bands:  1 eigenvalues not converged
     c_bands:  3 eigenvalues not converged
     ethr =  1.00E-02,  avg # of iterations = 15.4

     negative rho (up, down):  8.926E-06 0.000E+00

     total cpu time spent up to now is      314.6 secs

     total energy              =   -2471.08176467 Ry
     estimated scf accuracy    <    1928.54584497 Ry

     iteration #  4     ecut=    65.00 Ry     beta= 0.70
     CG style diagonalization
     c_bands:  1 eigenvalues not converged
     c_bands:  2 eigenvalues not converged
     c_bands:  3 eigenvalues not converged
     c_bands:  3 eigenvalues not converged
     c_bands:  2 eigenvalues not converged
     c_bands:  1 eigenvalues not converged
     c_bands:  2 eigenvalues not converged
     c_bands:  1 eigenvalues not converged
     c_bands:  2 eigenvalues not converged
     c_bands:  1 eigenvalues not converged
     c_bands:  1 eigenvalues not converged
     c_bands:  4 eigenvalues not converged
     c_bands:  4 eigenvalues not converged
     c_bands:  3 eigenvalues not converged
     c_bands:  1 eigenvalues not converged
     c_bands:  5 eigenvalues not converged
     c_bands:  1 eigenvalues not converged
     ethr =  1.00E-02,  avg # of iterations =  7.5

     negative rho (up, down):  2.027E-05 0.000E+00

     total cpu time spent up to now is      325.9 secs

     total energy              =   -1915.23985677 Ry
     estimated scf accuracy    <    1233.92518755 Ry

     iteration #  5     ecut=    65.00 Ry     beta= 0.70
     CG style diagonalization
     c_bands:  2 eigenvalues not converged
     c_bands:  1 eigenvalues not converged
     c_bands:  1 eigenvalues not converged
     c_bands:  1 eigenvalues not converged
     c_bands:  1 eigenvalues not converged
     c_bands:  2 eigenvalues not converged
     c_bands:  2 eigenvalues not converged
     c_bands:  1 eigenvalues not converged
     c_bands:  1 eigenvalues not converged
     c_bands:  1 eigenvalues not converged
     c_bands:  1 eigenvalues not converged
     c_bands:  1 eigenvalues not converged
     c_bands:  1 eigenvalues not converged
     ethr =  1.00E-02,  avg # of iterations =  7.1

     negative rho (up, down):  3.682E-06 0.000E+00

     total cpu time spent up to now is      336.7 secs

     total energy              =   -1759.51925193 Ry
     estimated scf accuracy    <     587.40609297 Ry

     iteration #  6     ecut=    65.00 Ry     beta= 0.70
     CG style diagonalization
     c_bands:  1 eigenvalues not converged
     c_bands:  2 eigenvalues not converged
     c_bands:  1 eigenvalues not converged
     c_bands:  1 eigenvalues not converged
     c_bands:  1 eigenvalues not converged
     c_bands:  2 eigenvalues not converged
     c_bands:  1 eigenvalues not converged
     c_bands:  2 eigenvalues not converged
     c_bands:  1 eigenvalues not converged
     c_bands:  1 eigenvalues not converged
     ethr =  1.00E-02,  avg # of iterations =  4.3

     negative rho (up, down):  2.466E-07 0.000E+00

     total cpu time spent up to now is      343.8 secs

     total energy              =   -1719.56722838 Ry
     estimated scf accuracy    <     394.59679518 Ry

     iteration #  7     ecut=    65.00 Ry     beta= 0.70
     CG style diagonalization
     c_bands:  1 eigenvalues not converged
     ethr =  1.00E-02,  avg # of iterations =  3.4

     negative rho (up, down):  2.794E-04 0.000E+00

     total cpu time spent up to now is      349.5 secs

     total energy              =   -1437.91201236 Ry
     estimated scf accuracy    <     346.99341310 Ry

     iteration #  8     ecut=    65.00 Ry     beta= 0.70
     CG style diagonalization
     c_bands:  1 eigenvalues not converged
     c_bands:  1 eigenvalues not converged
     c_bands:  1 eigenvalues not converged
     c_bands:  2 eigenvalues not converged
     c_bands:  1 eigenvalues not converged
     c_bands:  2 eigenvalues not converged
     c_bands:  1 eigenvalues not converged
     c_bands:  1 eigenvalues not converged
     c_bands:  1 eigenvalues not converged
     c_bands:  1 eigenvalues not converged
     c_bands:  1 eigenvalues not converged
     ethr =  1.00E-02,  avg # of iterations =  7.1

     negative rho (up, down):  2.555E-05 0.000E+00

     total cpu time spent up to now is      360.2 secs

     total energy              =   -1569.83575493 Ry
     estimated scf accuracy    <      41.63061746 Ry

     iteration #  9     ecut=    65.00 Ry     beta= 0.70
     CG style diagonalization
     c_bands:  1 eigenvalues not converged
     c_bands:  1 eigenvalues not converged
     ethr =  1.00E-02,  avg # of iterations =  6.1

     negative rho (up, down):  8.492E-05 0.000E+00

     total cpu time spent up to now is      369.6 secs

     total energy              =   -1568.63066636 Ry
     estimated scf accuracy    <     166.23190427 Ry

     iteration # 10     ecut=    65.00 Ry     beta= 0.70
     CG style diagonalization
     ethr =  1.00E-02,  avg # of iterations =  3.2

     negative rho (up, down):  1.298E-02 0.000E+00

     total cpu time spent up to now is      375.2 secs

     total energy              =   -1417.15528117 Ry
     estimated scf accuracy    <     157.51042620 Ry

     iteration # 11     ecut=    65.00 Ry     beta= 0.70
     CG style diagonalization
     c_bands:  1 eigenvalues not converged
     c_bands:  1 eigenvalues not converged
     c_bands:  3 eigenvalues not converged
     ethr =  1.00E-02,  avg # of iterations = 17.2

     negative rho (up, down):  4.924E-03 0.000E+00

     total cpu time spent up to now is      398.8 secs

     total energy              =   -1485.38276623 Ry
     estimated scf accuracy    <    2964.81507319 Ry

     iteration # 12     ecut=    65.00 Ry     beta= 0.70
     CG style diagonalization
     ethr =  1.00E-02,  avg # of iterations =  3.7

     total cpu time spent up to now is      405.2 secs

     total energy              =    -985.76786101 Ry
     estimated scf accuracy    <    2576.78958335 Ry

     iteration # 13     ecut=    65.00 Ry     beta= 0.70
     CG style diagonalization
     c_bands:  2 eigenvalues not converged
     c_bands:  4 eigenvalues not converged
     c_bands:  3 eigenvalues not converged
     c_bands:  5 eigenvalues not converged
     c_bands:  5 eigenvalues not converged
     ethr =  1.00E-02,  avg # of iterations = 17.8

     total cpu time spent up to now is      429.5 secs

     total energy              =   -1417.15716833 Ry
     estimated scf accuracy    <      67.19528123 Ry

     iteration # 14     ecut=    65.00 Ry     beta= 0.70
     CG style diagonalization
     ethr =  1.00E-02,  avg # of iterations =  4.7

     total cpu time spent up to now is      437.3 secs

     total energy              =   -1424.00585039 Ry
     estimated scf accuracy    <      56.78866077 Ry

     iteration # 15     ecut=    65.00 Ry     beta= 0.70
     CG style diagonalization
     c_bands:  1 eigenvalues not converged
     c_bands:  1 eigenvalues not converged
     c_bands:  2 eigenvalues not converged
     c_bands:  1 eigenvalues not converged
     c_bands:  1 eigenvalues not converged
     c_bands:  1 eigenvalues not converged
     c_bands:  2 eigenvalues not converged
     c_bands:  1 eigenvalues not converged
     ethr =  1.00E-02,  avg # of iterations =  7.2

     negative rho (up, down):  4.961E-03 0.000E+00

     total cpu time spent up to now is      448.5 secs

     total energy              =   -1450.72852660 Ry
     estimated scf accuracy    <     129.21314581 Ry

     iteration # 16     ecut=    65.00 Ry     beta= 0.70
     CG style diagonalization
     c_bands:  1 eigenvalues not converged
     c_bands:  1 eigenvalues not converged
     c_bands:  2 eigenvalues not converged
     c_bands:  1 eigenvalues not converged
     c_bands:  1 eigenvalues not converged
     c_bands:  1 eigenvalues not converged
     ethr =  1.00E-02,  avg # of iterations =  4.8

     negative rho (up, down):  2.211E-01 0.000E+00

     total cpu time spent up to now is      456.4 secs

     total energy              =   -1459.44136189 Ry
     estimated scf accuracy    <      63.00488546 Ry

     iteration # 17     ecut=    65.00 Ry     beta= 0.70
     CG style diagonalization
     ethr =  1.00E-02,  avg # of iterations =  3.6

     negative rho (up, down):  3.492E-01 0.000E+00

     total cpu time spent up to now is      462.6 secs

     total energy              =   -1447.33751187 Ry
     estimated scf accuracy    <      62.02356187 Ry

     iteration # 18     ecut=    65.00 Ry     beta= 0.70
     CG style diagonalization
     ethr =  1.00E-02,  avg # of iterations =  3.3

     negative rho (up, down):  2.186E-01 0.000E+00

     total cpu time spent up to now is      468.2 secs

     total energy              =   -1473.81520511 Ry
     estimated scf accuracy    <      45.61073825 Ry

     iteration # 19     ecut=    65.00 Ry     beta= 0.70
     CG style diagonalization
     ethr =  1.00E-02,  avg # of iterations =  4.2

     negative rho (up, down):  4.393E-01 0.000E+00

     total cpu time spent up to now is      475.1 secs

     total energy              =   -1466.55954231 Ry
     estimated scf accuracy    <      66.80573791 Ry

     iteration # 20     ecut=    65.00 Ry     beta= 0.70
     CG style diagonalization
     ethr =  1.00E-02,  avg # of iterations =  3.0

     negative rho (up, down):  1.751E-02 0.000E+00

     total cpu time spent up to now is      480.4 secs

     total energy              =   -1468.88892247 Ry
     estimated scf accuracy    <      56.41724734 Ry

     iteration # 21     ecut=    65.00 Ry     beta= 0.70
     CG style diagonalization
     ethr =  1.00E-02,  avg # of iterations =  3.8

     negative rho (up, down):  3.593E-02 0.000E+00

     total cpu time spent up to now is      486.7 secs

     total energy              =   -1415.85194103 Ry
     estimated scf accuracy    <      64.67039908 Ry

     iteration # 22     ecut=    65.00 Ry     beta= 0.70
     CG style diagonalization
     ethr =  1.00E-02,  avg # of iterations =  4.0

     negative rho (up, down):  3.248E-03 0.000E+00

     total cpu time spent up to now is      493.4 secs

     total energy              =   -1418.24124212 Ry
     estimated scf accuracy    <      11.71392909 Ry

     iteration # 23     ecut=    65.00 Ry     beta= 0.70
     CG style diagonalization
     ethr =  1.00E-02,  avg # of iterations =  4.2

     negative rho (up, down):  1.141E-02 0.000E+00

     total cpu time spent up to now is      500.3 secs

     total energy              =   -1420.88720081 Ry
     estimated scf accuracy    <       5.12813682 Ry

     iteration # 24     ecut=    65.00 Ry     beta= 0.70
     CG style diagonalization
     ethr =  7.89E-03,  avg # of iterations =  3.4

     negative rho (up, down):  6.381E-03 0.000E+00

     total cpu time spent up to now is      506.2 secs

     total energy              =   -1421.62367004 Ry
     estimated scf accuracy    <       3.46033783 Ry

     iteration # 25     ecut=    65.00 Ry     beta= 0.70
     CG style diagonalization
     ethr =  5.32E-03,  avg # of iterations =  3.1

     negative rho (up, down):  2.576E-02 0.000E+00

     total cpu time spent up to now is      511.7 secs

     total energy              =   -1421.86454141 Ry
     estimated scf accuracy    <       0.20041959 Ry

     iteration # 26     ecut=    65.00 Ry     beta= 0.70
     CG style diagonalization
     ethr =  3.08E-04,  avg # of iterations =  3.9

     negative rho (up, down):  6.582E-03 0.000E+00

     total cpu time spent up to now is      518.2 secs

     total energy              =   -1421.91492750 Ry
     estimated scf accuracy    <       0.25022088 Ry

     iteration # 27     ecut=    65.00 Ry     beta= 0.70
     CG style diagonalization
     ethr =  3.08E-04,  avg # of iterations =  4.0

     negative rho (up, down):  2.945E-04 0.000E+00

     total cpu time spent up to now is      524.8 secs

     total energy              =   -1421.95943131 Ry
     estimated scf accuracy    <       0.00659420 Ry

     iteration # 28     ecut=    65.00 Ry     beta= 0.70
     CG style diagonalization
     c_bands:  1 eigenvalues not converged
     c_bands:  1 eigenvalues not converged
     c_bands:  1 eigenvalues not converged
     ethr =  1.01E-05,  avg # of iterations =  5.3

     negative rho (up, down):  5.008E-04 0.000E+00

     total cpu time spent up to now is      533.3 secs

     total energy              =   -1421.96670480 Ry
     estimated scf accuracy    <       0.00226643 Ry

     iteration # 29     ecut=    65.00 Ry     beta= 0.70
     CG style diagonalization
     c_bands:  1 eigenvalues not converged
     c_bands:  1 eigenvalues not converged
     c_bands:  1 eigenvalues not converged
     c_bands:  1 eigenvalues not converged
     ethr =  3.49E-06,  avg # of iterations =  4.8

     negative rho (up, down):  5.771E-05 0.000E+00

     total cpu time spent up to now is      541.1 secs

     total energy              =   -1421.96874929 Ry
     estimated scf accuracy    <       0.00110484 Ry

     iteration # 30     ecut=    65.00 Ry     beta= 0.70
     CG style diagonalization
     c_bands:  1 eigenvalues not converged
     c_bands:  1 eigenvalues not converged
     ethr =  1.70E-06,  avg # of iterations =  4.2

     negative rho (up, down):  8.463E-05 0.000E+00

     total cpu time spent up to now is      548.1 secs

     total energy              =   -1421.96907702 Ry
     estimated scf accuracy    <       0.00011402 Ry

     iteration # 31     ecut=    65.00 Ry     beta= 0.70
     CG style diagonalization
     ethr =  1.75E-07,  avg # of iterations =  4.6

     negative rho (up, down):  7.162E-05 0.000E+00

     total cpu time spent up to now is      555.6 secs

     total energy              =   -1421.96921042 Ry
     estimated scf accuracy    <       0.00006238 Ry

     iteration # 32     ecut=    65.00 Ry     beta= 0.70
     CG style diagonalization
     ethr =  9.60E-08,  avg # of iterations =  4.1

     negative rho (up, down):  5.083E-05 0.000E+00

     total cpu time spent up to now is      562.3 secs

     total energy              =   -1421.96924413 Ry
     estimated scf accuracy    <       0.00000347 Ry

     iteration # 33     ecut=    65.00 Ry     beta= 0.70
     CG style diagonalization
     ethr =  5.33E-09,  avg # of iterations =  5.5

     negative rho (up, down):  4.443E-05 0.000E+00

     total cpu time spent up to now is      570.8 secs

     total energy              =   -1421.96925900 Ry
     estimated scf accuracy    <       0.00000092 Ry

     iteration # 34     ecut=    65.00 Ry     beta= 0.70
     CG style diagonalization
     ethr =  1.41E-09,  avg # of iterations =  4.6

     negative rho (up, down):  4.087E-05 0.000E+00

     total cpu time spent up to now is      578.1 secs

     total energy              =   -1421.96926360 Ry
     estimated scf accuracy    <       0.00000200 Ry

     iteration # 35     ecut=    65.00 Ry     beta= 0.70
     CG style diagonalization
     ethr =  1.41E-09,  avg # of iterations =  3.7

     negative rho (up, down):  4.310E-05 0.000E+00

     total cpu time spent up to now is      584.2 secs

     total energy              =   -1421.96926474 Ry
     estimated scf accuracy    <       0.00000015 Ry

     iteration # 36     ecut=    65.00 Ry     beta= 0.70
     CG style diagonalization
     ethr =  2.25E-10,  avg # of iterations =  4.6

     negative rho (up, down):  4.304E-05 0.000E+00

     total cpu time spent up to now is      591.5 secs

     End of self-consistent calculation

          k = 0.0000 0.0000 0.0000 (  9133 PWs)   bands (ev):

   -65.8924 -64.8900 -32.8165 -32.1758 -32.1758 -31.5263 -31.1055 -31.1055
   -23.2727 -17.5813 -17.5582 -17.5582 -17.5526 -17.5526 -17.5005 -17.4541
   -16.6200 -16.5755 -16.5755 -16.5459 -16.5459 -16.5264 -16.4754 -10.1547
    -5.8841  -4.9283  -4.9283  -2.7180  -2.0347  -2.0347   2.2841   2.6476
     2.6476   2.9659   4.1618   4.3189   4.3190   6.5821   6.6030   6.7012

          k = 0.0000 0.0953 0.0000 (  9157 PWs)   bands (ev):

   -65.8902 -64.8881 -32.8044 -32.2260 -32.1856 -31.5200 -31.1396 -31.1131
   -23.2587 -17.5804 -17.5591 -17.5582 -17.5528 -17.5518 -17.4985 -17.4564
   -16.6188 -16.5767 -16.5758 -16.5464 -16.5450 -16.5241 -16.4776 -10.0607
    -5.7844  -5.0232  -4.9219  -2.6473  -2.2185  -2.0091   1.9787   2.6646
     2.7779   3.1514   3.8047   4.3774   4.6181   6.4088   6.6669   6.8935

          k = 0.0000 0.1907 0.0000 (  9151 PWs)   bands (ev):

   -65.8841 -64.8828 -32.7714 -32.3565 -32.2122 -31.5084 -31.2306 -31.1337
   -23.2227 -17.5779 -17.5616 -17.5586 -17.5524 -17.5490 -17.4933 -17.4624
   -16.6155 -16.5799 -16.5765 -16.5472 -16.5423 -16.5182 -16.4832  -9.8120
    -5.5765  -5.2262  -4.9161  -2.7511  -2.2812  -1.9343   1.3682   2.4298
     3.1547   3.3630   3.8485   4.6037   5.0760   6.5967   6.8681   7.3205

          k = 0.0000 0.2860 0.0000 (  9135 PWs)   bands (ev):

   -65.8757 -64.8756 -32.7273 -32.5230 -32.2483 -31.5015 -31.3497 -31.1618
   -23.1786 -17.5751 -17.5650 -17.5594 -17.5504 -17.5448 -17.4864 -17.4704
   -16.6112 -16.5840 -16.5776 -16.5478 -16.5386 -16.5103 -16.4906  -9.4992
    -5.6169  -5.2411  -4.9336  -3.0770  -1.9122  -1.8251   0.6915   2.2170
     3.5665   3.7353   4.2955   5.0838   5.5268   7.0527   7.0877   7.9540

          k = 0.0000 0.3813 0.0000 (  9143 PWs)   bands (ev):

   -65.8673 -64.8684 -32.7052 -32.6594 -32.2841 -31.5048 -31.4590 -31.1898
   -23.1399 -17.5732 -17.5680 -17.5605 -17.5472 -17.5405 -17.4798 -17.4780
   -16.6071 -16.5880 -16.5789 -16.5481 -16.5349 -16.5023 -16.4978  -9.2320
    -5.8126  -5.1848  -4.9750  -3.2586  -1.7163  -1.4745   0.1398   2.4072
     3.8665   4.4638   4.8182   5.7755   5.8905   7.2582   7.2702   8.7005

          k = 0.0000 0.4766 0.0000 (  9093 PWs)   bands (ev):

   -65.8612 -64.8631 -32.8003 -32.6448 -32.3102 -31.5476 -31.4975 -31.2102
   -23.1147 -17.5730 -17.5689 -17.5614 -17.5443 -17.5373 -17.4832 -17.4749
   -16.6043 -16.5907 -16.5798 -16.5481 -16.5320 -16.5028 -16.4963  -9.0759
    -5.9334  -5.1990  -5.0170  -3.3247  -1.6419  -1.1905  -0.1745   2.9373
     4.3593   5.2339   5.2658   5.8867   6.3264   7.2279   7.4759   9.4467

          k =-0.0000-0.5720 0.0000 (  9088 PWs)   bands (ev):

   -65.8589 -64.8612 -32.8397 -32.6343 -32.3197 -31.5734 -31.5010 -31.2176
   -23.1061 -17.5734 -17.5689 -17.5618 -17.5431 -17.5362 -17.4851 -17.4731
   -16.6033 -16.5918 -16.5802 -16.5481 -16.5310 -16.5046 -16.4941  -9.0288
    -5.9694  -5.2152  -5.0345  -3.3389  -1.6164  -1.1123  -0.2640   3.2613
     4.7705   5.3316   5.6674   5.8156   6.4046   7.1795   7.6502   9.0572

          k = 0.0826 0.1430 0.0000 (  9149 PWs)   bands (ev):

   -65.8860 -64.8845 -32.7818 -32.3135 -32.2065 -31.5112 -31.2001 -31.1292
   -23.2337 -17.5786 -17.5607 -17.5584 -17.5527 -17.5499 -17.4949 -17.4606
   -16.6165 -16.5788 -16.5763 -16.5469 -16.5432 -16.5201 -16.4814  -9.8889
    -5.6257  -5.1710  -4.9204  -2.6613  -2.3301  -1.9739   1.5792   2.5592
     2.9235   3.3321   3.8000   4.4293   5.0134   6.5885   6.7664   7.1833

          k = 0.0826 0.2383 0.0000 (  9141 PWs)   bands (ev):

   -65.8788 -64.8782 -32.7429 -32.4550 -32.2447 -31.5022 -31.3003 -31.1583
   -23.1939 -17.5759 -17.5636 -17.5592 -17.5514 -17.5463 -17.4890 -17.4676
   -16.6127 -16.5823 -16.5773 -16.5475 -16.5401 -16.5132 -16.4880  -9.6056
    -5.5391  -5.2687  -4.9392  -2.9583  -2.0619  -1.9152   1.0010   2.3728
     3.0962   3.5741   4.2419   4.7263   5.4846   6.8475   7.2372   7.7341

          k = 0.0826 0.3336 0.0000 (  9120 PWs)   bands (ev):

   -65.8704 -64.8710 -32.7011 -32.6070 -32.2887 -31.4995 -31.4104 -31.1916
   -23.1529 -17.5734 -17.5668 -17.5603 -17.5486 -17.5422 -17.4822 -17.4754
   -16.6084 -16.5862 -16.5786 -16.5478 -16.5365 -16.5052 -16.4954  -9.3116
    -5.7194  -5.1809  -4.9849  -3.1790  -1.8477  -1.6252   0.4380   2.3569
     3.3583   3.9992   4.8503   5.3356   5.9526   6.9911   7.7225   8.4124

          k = 0.0826 0.4290 0.0000 (  9109 PWs)   bands (ev):

   -65.8631 -64.8648 -32.7466 -32.6520 -32.3262 -31.5153 -31.4874 -31.2199
   -23.1214 -17.5723 -17.5686 -17.5615 -17.5453 -17.5386 -17.4821 -17.4763
   -16.6049 -16.5894 -16.5799 -16.5478 -16.5335 -16.5017 -16.4981  -9.0993
    -5.8681  -5.1756  -5.0390  -3.2592  -1.7927  -1.2426   0.0761   2.6429
     3.7148   4.6655   5.4752   5.8068   6.2745   7.2088   7.8023   9.1956

          k = 0.0826 0.5243 0.0000 (  9072 PWs)   bands (ev):

   -65.8589 -64.8612 -32.8166 -32.6329 -32.3475 -31.5584 -31.4974 -31.2361
   -23.1048 -17.5726 -17.5686 -17.5621 -17.5431 -17.5366 -17.4856 -17.4730
   -16.6029 -16.5911 -16.5806 -16.5477 -16.5317 -16.5050 -16.4940  -9.0000
    -5.9328  -5.2066  -5.0771  -3.2713  -1.7649  -1.0784  -0.0581   3.0804
     4.1099   5.1894   5.6762   6.1153   6.2863   7.6158   7.7276   9.0425

          k = 0.1651 0.2860 0.0000 (  9129 PWs)   bands (ev):

   -65.8715 -64.8720 -32.7047 -32.5712 -32.3029 -31.4973 -31.3834 -31.2011
   -23.1575 -17.5735 -17.5660 -17.5605 -17.5493 -17.5428 -17.4832 -17.4745
   -16.6088 -16.5854 -16.5787 -16.5476 -16.5374 -16.5064 -16.4945  -9.3369
    -5.6698  -5.1732  -5.0042  -3.1308  -1.9505  -1.6783   0.6277   2.4948
     2.9945   3.6743   4.8706   5.3039   5.9284   6.8824   8.0696   8.3883

          k = 0.1651 0.3813 0.0000 (  9104 PWs)   bands (ev):

   -65.8643 -64.8657 -32.6934 -32.6506 -32.3661 -31.4968 -31.4595 -31.2467
   -23.1245 -17.5715 -17.5679 -17.5619 -17.5460 -17.5396 -17.4820 -17.4769
   -16.6050 -16.5880 -16.5804 -16.5473 -16.5350 -16.5016 -16.4988  -9.0940
    -5.8046  -5.1746  -5.0430  -3.1797  -1.9962  -1.2566   0.3965   2.5208
     3.0428   4.2441   5.4196   5.9751   6.3561   6.9444   8.5934   9.0367

          k = 0.1651 0.4766 0.0000 (  9083 PWs)   bands (ev):

   -65.8589 -64.8612 -32.7601 -32.6300 -32.4134 -31.5211 -31.4907 -31.2803
   -23.1023 -17.5711 -17.5682 -17.5631 -17.5431 -17.5374 -17.4867 -17.4730
   -16.6023 -16.5898 -16.5817 -16.5467 -16.5334 -16.5060 -16.4940  -8.9410
    -5.8706  -5.2658  -5.0526  -3.1410  -2.0407  -1.0003   0.3794   2.6864
     3.2701   4.9072   5.5065   6.1508   6.6720   7.4825   8.3816   9.2125

          k = 0.1651 0.5720 0.0000 (  9072 PWs)   bands (ev):

   -65.8570 -64.8595 -32.7865 -32.6200 -32.4307 -31.5400 -31.4921 -31.2925
   -23.0946 -17.5713 -17.5680 -17.5635 -17.5419 -17.5367 -17.4885 -17.4715
   -16.6013 -16.5904 -16.5823 -16.5464 -16.5329 -16.5077 -16.4921  -8.8918
    -5.8841  -5.3071  -5.0642  -3.1127  -2.0598  -0.9380   0.4087   2.9094
     3.3904   5.0291   5.5496   6.0394   6.8799   7.6762   8.4318   9.0693

          k = 0.2477 0.4290 0.0000 (  9115 PWs)   bands (ev):

   -65.8590 -64.8612 -32.7221 -32.6285 -32.4561 -31.4945 -31.4888 -31.3089
   -23.1010 -17.5702 -17.5680 -17.5638 -17.5431 -17.5379 -17.4873 -17.4730
   -16.6020 -16.5889 -16.5825 -16.5462 -16.5344 -16.5065 -16.4941  -8.9106
    -5.8469  -5.3117  -5.0053  -3.0747  -2.1807  -0.9566   0.6546   2.4321
     2.9220   4.7661   5.4388   6.1290   7.0434   7.2333   8.5428   9.4207

          k = 0.2477 0.5243 0.0000 (  9076 PWs)   bands (ev):

   -65.8559 -64.8585 -32.7284 -32.6113 -32.5214 -31.5038 -31.4884 -31.3524
   -23.0879 -17.5695 -17.5675 -17.5652 -17.5409 -17.5371 -17.4904 -17.4707
   -16.6002 -16.5889 -16.5842 -16.5451 -16.5345 -16.5095 -16.4910  -8.8101
    -5.8483  -5.4199  -4.9847  -2.9463  -2.3285  -0.8227   1.0048   2.4049
     2.9581   4.7592   5.4433   5.9678   7.1994   7.6140   8.7011   9.6947

          k = 0.3302 0.5720 0.0000 (  9054 PWs)   bands (ev):

   -65.8547 -64.8576 -32.6824 -32.6033 -32.5964 -31.4892 -31.4793 -31.3959
   -23.0826 -17.5680 -17.5670 -17.5669 -17.5399 -17.5372 -17.4918 -17.4699
   -16.5993 -16.5875 -16.5861 -16.5441 -16.5353 -16.5107 -16.4899  -8.7593
    -5.8332  -5.4887  -4.9493  -2.7901  -2.5178  -0.7534   1.5912   1.9893
     2.8510   4.5269   5.4512   5.8747   7.2716   7.5846   9.2849   9.8276

     the Fermi energy is     3.1812 ev

!    total energy              =   -1421.96926607 Ry
     estimated scf accuracy    <          8.5E-09 Ry
     smearing contrib. (-TS)   =       0.00025279 Ry
     internal energy E=F+TS    =   -1421.96951886 Ry

     The total energy is F=E-TS. E is the sum of the following terms:
     one-electron contribution =   -6797.04028673 Ry
     hartree contribution      =    3436.32397540 Ry
     xc contribution           =    -148.40219208 Ry
     ewald contribution        =    2087.14898455 Ry

     convergence has been achieved in  36 iterations

     negative rho (up, down):  4.304E-05 0.000E+00

     Forces acting on atoms (cartesian axes, Ry/au):

     atom    1 type  1   force =    -0.00000000   -0.00000000   -0.05496372
     atom    2 type  2   force =    -0.00000000   -0.00000000   -0.02426188
     atom    3 type  1   force =     0.00000000    0.00000000   -0.01452440
     atom    4 type  3   force =    -0.00000000   -0.00000000    0.09375001

     Total force =     0.112293     Total SCF correction =     0.001167


     Computing stress (Cartesian axis) and pressure


     negative rho (up, down):  4.304E-05 0.000E+00
          total   stress  (Ry/bohr**3)                   (kbar)     P=       14.72
  -0.00006990   0.00000000  -0.00000000          -10.28        0.00       -0.00
   0.00000000  -0.00006990  -0.00000000            0.00      -10.28       -0.00
  -0.00000000  -0.00000000   0.00043992           -0.00       -0.00       64.71

     Energy error            =      1.4E-01 Ry
     Gradient error          =      9.4E-02 Ry/Bohr
     Cell gradient error     =      1.0E+01 kbar

     number of scf cycles    =   2
     number of bfgs steps    =   1

     enthalpy           old  =   -1421.8331660038 Ry
     enthalpy           new  =   -1421.9692660748 Ry

     CASE: enthalpy          _new < enthalpy          _old

     new trust radius        =       0.1036541246 bohr
     new conv_thr            =       0.0000000938 Ry

     new unit-cell volume =   1085.87206 a.u.^3 (   160.90964 Ang^3 )
     density =      4.05466 g/cm^3

CELL_PARAMETERS (alat=  5.89970000)
   1.008796336  -0.000000000   0.000000000
  -0.504398168   0.873643255   0.000000000
   0.000000000   0.000000000   6.000000000

ATOMIC_POSITIONS (crystal)
Ta            0.3333333330        0.6666666670        0.0301275470    0   0   1
C             0.0000000000        0.0000000000        0.0897044053    0   0   1
Ta            0.6666666670        0.3333333330        0.1500338433    0   0   1
F            -0.0000000000       -0.0000000000        0.2216738774



     Writing output data file /scratch/as3359/Ta2CF-VCrelax-5/Ta.save/
     NEW-OLD atomic charge density approx. for the potential

     negative rho (up, down):  4.589E-05 0.000E+00
     extrapolated charge   64.91923, renormalised to   65.00000

     total cpu time spent up to now is      620.4 secs

     Self-consistent Calculation

     iteration #  1     ecut=    65.00 Ry     beta= 0.70
     CG style diagonalization
     c_bands:  3 eigenvalues not converged
     c_bands:  3 eigenvalues not converged
     c_bands:  3 eigenvalues not converged
     c_bands:  3 eigenvalues not converged
     c_bands:  2 eigenvalues not converged
     c_bands:  2 eigenvalues not converged
     c_bands:  3 eigenvalues not converged
     c_bands:  1 eigenvalues not converged
     c_bands:  1 eigenvalues not converged
     c_bands:  1 eigenvalues not converged
     c_bands:  2 eigenvalues not converged
     c_bands:  2 eigenvalues not converged
     c_bands:  2 eigenvalues not converged
     c_bands:  1 eigenvalues not converged
     ethr =  1.00E-06,  avg # of iterations =  8.5

     negative rho (up, down):  5.138E-05 0.000E+00

     total cpu time spent up to now is      633.5 secs

     total energy              =   -1421.90959001 Ry
     estimated scf accuracy    <       0.07190837 Ry

     iteration #  2     ecut=    65.00 Ry     beta= 0.70
     CG style diagonalization
     ethr =  1.11E-04,  avg # of iterations =  4.0

     negative rho (up, down):  2.060E-04 0.000E+00

     total cpu time spent up to now is      640.0 secs

     total energy              =   -1421.71771576 Ry
     estimated scf accuracy    <       4.63632654 Ry

     iteration #  3     ecut=    65.00 Ry     beta= 0.70
     CG style diagonalization
     ethr =  1.11E-04,  avg # of iterations =  4.1

     negative rho (up, down):  1.972E-04 0.000E+00

     total cpu time spent up to now is      646.8 secs

     total energy              =   -1421.97834542 Ry
     estimated scf accuracy    <       0.11302310 Ry

     iteration #  4     ecut=    65.00 Ry     beta= 0.70
     CG style diagonalization
     ethr =  1.11E-04,  avg # of iterations =  3.2

     negative rho (up, down):  1.431E-04 0.000E+00

     total cpu time spent up to now is      652.4 secs

     total energy              =   -1421.98236961 Ry
     estimated scf accuracy    <       0.06194552 Ry

     iteration #  5     ecut=    65.00 Ry     beta= 0.70
     CG style diagonalization
     ethr =  9.53E-05,  avg # of iterations =  3.1

     negative rho (up, down):  9.790E-05 0.000E+00

     total cpu time spent up to now is      657.8 secs

     total energy              =   -1421.98112675 Ry
     estimated scf accuracy    <       0.03055604 Ry

     iteration #  6     ecut=    65.00 Ry     beta= 0.70
     CG style diagonalization
     ethr =  4.70E-05,  avg # of iterations =  3.1

     negative rho (up, down):  5.795E-05 0.000E+00

     total cpu time spent up to now is      663.1 secs

     total energy              =   -1421.98080696 Ry
     estimated scf accuracy    <       0.00704649 Ry

     iteration #  7     ecut=    65.00 Ry     beta= 0.70
     CG style diagonalization
     ethr =  1.08E-05,  avg # of iterations =  3.5

     negative rho (up, down):  4.454E-05 0.000E+00

     total cpu time spent up to now is      669.1 secs

     total energy              =   -1421.98170223 Ry
     estimated scf accuracy    <       0.00002913 Ry

     iteration #  8     ecut=    65.00 Ry     beta= 0.70
     CG style diagonalization
     ethr =  4.48E-08,  avg # of iterations =  6.3

     negative rho (up, down):  4.670E-05 0.000E+00

     total cpu time spent up to now is      678.8 secs

     total energy              =   -1421.98193784 Ry
     estimated scf accuracy    <       0.00112930 Ry

     iteration #  9     ecut=    65.00 Ry     beta= 0.70
     CG style diagonalization
     ethr =  4.48E-08,  avg # of iterations =  3.9

     negative rho (up, down):  4.738E-05 0.000E+00

     total cpu time spent up to now is      685.2 secs

     total energy              =   -1421.98190548 Ry
     estimated scf accuracy    <       0.00039714 Ry

     iteration # 10     ecut=    65.00 Ry     beta= 0.70
     CG style diagonalization
     ethr =  4.48E-08,  avg # of iterations =  3.7

     negative rho (up, down):  4.611E-05 0.000E+00

     total cpu time spent up to now is      691.3 secs

     total energy              =   -1421.98189474 Ry
     estimated scf accuracy    <       0.00009380 Ry

     iteration # 11     ecut=    65.00 Ry     beta= 0.70
     CG style diagonalization
     ethr =  4.48E-08,  avg # of iterations =  3.6

     negative rho (up, down):  4.491E-05 0.000E+00

     total cpu time spent up to now is      697.4 secs

     total energy              =   -1421.98189799 Ry
     estimated scf accuracy    <       0.00001962 Ry

     iteration # 12     ecut=    65.00 Ry     beta= 0.70
     CG style diagonalization
     ethr =  3.02E-08,  avg # of iterations =  3.5

     negative rho (up, down):  4.427E-05 0.000E+00

     total cpu time spent up to now is      703.3 secs

     total energy              =   -1421.98190095 Ry
     estimated scf accuracy    <       0.00000464 Ry

     iteration # 13     ecut=    65.00 Ry     beta= 0.70
     CG style diagonalization
     ethr =  7.14E-09,  avg # of iterations =  3.5

     negative rho (up, down):  4.403E-05 0.000E+00

     total cpu time spent up to now is      709.3 secs

     total energy              =   -1421.98190154 Ry
     estimated scf accuracy    <       0.00000065 Ry

     iteration # 14     ecut=    65.00 Ry     beta= 0.70
     CG style diagonalization
     ethr =  9.97E-10,  avg # of iterations =  3.8

     negative rho (up, down):  4.404E-05 0.000E+00

     total cpu time spent up to now is      715.6 secs

     total energy              =   -1421.98190177 Ry
     estimated scf accuracy    <       0.00000016 Ry

     iteration # 15     ecut=    65.00 Ry     beta= 0.70
     CG style diagonalization
     ethr =  2.53E-10,  avg # of iterations =  3.8

     negative rho (up, down):  4.402E-05 0.000E+00

     total cpu time spent up to now is      721.9 secs

     End of self-consistent calculation

          k = 0.0000 0.0000 0.0000 (  9133 PWs)   bands (ev):

   -66.0230 -65.0535 -32.8998 -32.2911 -32.2911 -31.6817 -31.2561 -31.2561
   -23.0619 -17.7161 -17.6960 -17.6960 -17.6915 -17.6915 -17.6464 -17.5996
   -16.7831 -16.7414 -16.7414 -16.7149 -16.7149 -16.6956 -16.6456 -10.2438
    -5.7788  -4.6312  -4.6312  -2.8214  -2.0198  -2.0198   2.1351   2.5617
     2.5617   2.7423   4.0964   4.2038   4.2038   6.2947   6.2948   6.5120

          k = 0.0000 0.0954 0.0000 (  9157 PWs)   bands (ev):

   -66.0208 -65.0516 -32.8883 -32.3386 -32.3006 -31.6760 -31.2902 -31.2637
   -23.0488 -17.7151 -17.6964 -17.6956 -17.6922 -17.6911 -17.6444 -17.6019
   -16.7819 -16.7426 -16.7417 -16.7154 -16.7140 -16.6934 -16.6478 -10.1481
    -5.6710  -4.7360  -4.6275  -2.7563  -2.2162  -1.9961   1.8768   2.5343
     2.6966   2.8888   3.7281   4.2488   4.5563   6.1672   6.3902   7.0035

          k = 0.0000 0.1908 0.0000 (  9151 PWs)   bands (ev):

   -66.0148 -65.0462 -32.8571 -32.4628 -32.3265 -31.6650 -31.3815 -31.2846
   -23.0151 -17.7126 -17.6982 -17.6954 -17.6926 -17.6891 -17.6390 -17.6079
   -16.7788 -16.7457 -16.7424 -16.7161 -16.7114 -16.6876 -16.6534  -9.8942
    -5.4304  -4.9779  -4.6298  -2.7950  -2.3865  -1.9275   1.2903   2.2648
     3.0823   3.0955   3.7703   4.4560   5.0399   6.3534   6.6078   7.4275

          k = 0.0000 0.2862 0.0000 (  9135 PWs)   bands (ev):

   -66.0066 -65.0390 -32.8157 -32.6221 -32.3616 -31.6576 -31.5015 -31.3130
   -22.9732 -17.7099 -17.7014 -17.6961 -17.6910 -17.6852 -17.6320 -17.6157
   -16.7746 -16.7499 -16.7435 -16.7168 -16.7077 -16.6798 -16.6608  -9.5722
    -5.3823  -5.1017  -4.6586  -3.1198  -2.0613  -1.8303   0.6009   2.0756
     3.3183   3.6667   4.1916   4.9419   5.4858   6.8066   6.8291   8.0641

          k = 0.0000 0.3815 0.0000 (  9143 PWs)   bands (ev):

   -65.9983 -65.0317 -32.7983 -32.7503 -32.3965 -31.6584 -31.6131 -31.3412
   -22.9357 -17.7083 -17.7041 -17.6972 -17.6880 -17.6812 -17.6251 -17.6231
   -16.7707 -16.7539 -16.7448 -16.7170 -16.7041 -16.6720 -16.6679  -9.2921
    -5.6007  -5.0588  -4.7109  -3.3199  -1.7382  -1.6391   0.0360   2.2906
     3.6523   4.3958   4.6975   5.6614   5.8343   6.9964   7.0070   8.8166

          k = 0.0000 0.4769 0.0000 (  9093 PWs)   bands (ev):

   -65.9923 -65.0264 -32.8902 -32.7366 -32.4218 -31.7009 -31.6514 -31.3618
   -22.9109 -17.7087 -17.7046 -17.6981 -17.6853 -17.6781 -17.6283 -17.6200
   -16.7680 -16.7566 -16.7458 -16.7170 -16.7013 -16.6728 -16.6661  -9.1235
    -5.7506  -5.0768  -4.7604  -3.4017  -1.6785  -1.3705  -0.2829   2.8388
     4.1750   5.1603   5.1705   5.8138   6.2175   6.9383   7.2434   9.4327

          k =-0.0000-0.5723 0.0000 (  9088 PWs)   bands (ev):

   -65.9901 -65.0244 -32.9282 -32.7269 -32.4311 -31.7276 -31.6538 -31.3693
   -22.9023 -17.7093 -17.7044 -17.6985 -17.6842 -17.6770 -17.6301 -17.6181
   -16.7671 -16.7576 -16.7461 -16.7170 -16.7003 -16.6746 -16.6639  -9.0711
    -5.7987  -5.0937  -4.7804  -3.4220  -1.6589  -1.3007  -0.3726   3.1658
     4.5927   5.2925   5.6131   5.6941   6.2718   6.8708   7.4613   8.9923

          k = 0.0826 0.1431 0.0000 (  9149 PWs)   bands (ev):

   -66.0167 -65.0479 -32.8670 -32.4218 -32.3209 -31.6678 -31.3509 -31.2799
   -23.0255 -17.7133 -17.6975 -17.6954 -17.6927 -17.6898 -17.6407 -17.6060
   -16.7798 -16.7447 -16.7422 -16.7159 -16.7123 -16.6895 -16.6516  -9.9729
    -5.4933  -4.9055  -4.6323  -2.7282  -2.3992  -1.9666   1.5042   2.3950
     2.7926   3.1116   3.7475   4.2663   4.9752   6.3512   6.4971   7.2882

          k = 0.0826 0.2385 0.0000 (  9141 PWs)   bands (ev):

   -66.0096 -65.0416 -32.8303 -32.5570 -32.3579 -31.6588 -31.4518 -31.3093
   -22.9878 -17.7106 -17.7000 -17.6959 -17.6920 -17.6866 -17.6346 -17.6129
   -16.7761 -16.7482 -16.7433 -16.7165 -16.7092 -16.6827 -16.6581  -9.6827
    -5.3173  -5.1023  -4.6630  -2.9979  -2.1983  -1.9220   0.9282   2.2018
     2.9544   3.3892   4.1752   4.5693   5.4393   6.5794   7.0171   7.8307

          k = 0.0826 0.3339 0.0000 (  9120 PWs)   bands (ev):

   -66.0013 -65.0344 -32.7918 -32.7020 -32.4005 -31.6548 -31.5632 -31.3428
   -22.9485 -17.7083 -17.7030 -17.6970 -17.6895 -17.6827 -17.6276 -17.6206
   -16.7720 -16.7521 -16.7445 -16.7168 -16.7057 -16.6749 -16.6655  -9.3785
    -5.4857  -5.0494  -4.7251  -3.2353  -1.8729  -1.7814   0.3540   2.2170
     3.1812   3.8593   4.7593   5.2350   5.8718   6.7191   7.4922   8.5242

          k = 0.0826 0.4292 0.0000 (  9109 PWs)   bands (ev):

   -65.9942 -65.0281 -32.8387 -32.7431 -32.4369 -31.6677 -31.6428 -31.3715
   -22.9178 -17.7077 -17.7044 -17.6981 -17.6864 -17.6794 -17.6272 -17.6215
   -16.7686 -16.7552 -16.7458 -16.7168 -16.7027 -16.6717 -16.6679  -9.1540
    -5.6642  -5.0419  -4.7968  -3.3325  -1.8380  -1.4127  -0.0143   2.5341
     3.5394   4.5433   5.3998   5.7443   6.1166   6.9813   7.5489   9.2771

          k = 0.0826 0.5246 0.0000 (  9072 PWs)   bands (ev):

   -65.9901 -65.0244 -32.9059 -32.7255 -32.4576 -31.7122 -31.6509 -31.3879
   -22.9013 -17.7085 -17.7040 -17.6988 -17.6843 -17.6775 -17.6306 -17.6180
   -16.7668 -16.7570 -16.7466 -16.7166 -16.7010 -16.6750 -16.6638  -9.0460
    -5.7493  -5.0734  -4.8429  -3.3548  -1.8225  -1.2619  -0.1501   2.9861
     3.9623   5.1103   5.6000   5.9882   6.1265   7.3686   7.5332   8.9390

          k = 0.1652 0.2862 0.0000 (  9129 PWs)   bands (ev):

   -66.0025 -65.0353 -32.7949 -32.6678 -32.4139 -31.6533 -31.5360 -31.3521
   -22.9531 -17.7082 -17.7023 -17.6971 -17.6903 -17.6833 -17.6286 -17.6197
   -16.7724 -16.7512 -16.7447 -16.7166 -16.7066 -16.6760 -16.6646  -9.4069
    -5.4220  -5.0373  -4.7513  -3.1879  -1.9779  -1.8335   0.5659   2.2953
     2.8900   3.4938   4.8211   5.1516   5.8638   6.6047   7.9060   8.4410

          k = 0.1652 0.3815 0.0000 (  9104 PWs)   bands (ev):

   -65.9953 -65.0290 -32.7885 -32.7404 -32.4750 -31.6513 -31.6134 -31.3981
   -22.9211 -17.7066 -17.7038 -17.6985 -17.6874 -17.6803 -17.6270 -17.6222
   -16.7687 -16.7539 -16.7463 -16.7162 -16.7042 -16.6716 -16.6686  -9.1556
    -5.5767  -4.9888  -4.8562  -3.2576  -2.0520  -1.4211   0.3420   2.3728
     2.8820   4.1047   5.3904   5.8530   6.2056   6.7113   8.3732   9.1449

          k = 0.1652 0.4769 0.0000 (  9083 PWs)   bands (ev):

   -65.9901 -65.0244 -32.8515 -32.7224 -32.5206 -31.6741 -31.6453 -31.4323
   -22.8993 -17.7069 -17.7034 -17.6996 -17.6845 -17.6784 -17.6317 -17.6181
   -16.7661 -16.7556 -16.7477 -16.7157 -16.7027 -16.6760 -16.6639  -8.9948
    -5.6606  -5.0634  -4.8966  -3.2324  -2.1179  -1.1760   0.3222   2.5847
     3.1148   4.7953   5.4724   5.9500   6.5355   7.2761   8.2119   9.0242

          k = 0.1652 0.5723 0.0000 (  9072 PWs)   bands (ev):

   -65.9882 -65.0227 -32.8767 -32.7133 -32.5373 -31.6932 -31.6462 -31.4448
   -22.8916 -17.7073 -17.7031 -17.7000 -17.6832 -17.6778 -17.6335 -17.6165
   -16.7651 -16.7562 -16.7482 -16.7154 -16.7022 -16.6776 -16.6620  -8.9422
    -5.6815  -5.1086  -4.9097  -3.2083  -2.1452  -1.1180   0.3456   2.8192
     3.2645   4.9977   5.4115   5.8376   6.7460   7.4426   8.3059   8.8861

          k = 0.2478 0.4292 0.0000 (  9115 PWs)   bands (ev):

   -65.9901 -65.0244 -32.8151 -32.7204 -32.5618 -31.6479 -31.6431 -31.4612
   -22.8983 -17.7060 -17.7029 -17.7003 -17.6846 -17.6790 -17.6323 -17.6181
   -16.7658 -16.7548 -16.7485 -16.7152 -16.7037 -16.6765 -16.6639  -8.9686
    -5.6237  -5.0943  -4.8645  -3.1742  -2.2650  -1.1287   0.6287   2.3060
     2.7627   4.6447   5.4197   5.9244   6.9098   7.0182   8.4040   9.1879

          k = 0.2478 0.5246 0.0000 (  9076 PWs)   bands (ev):

   -65.9871 -65.0218 -32.8201 -32.7049 -32.6252 -31.6560 -31.6426 -31.5059
   -22.8855 -17.7058 -17.7024 -17.7012 -17.6824 -17.6786 -17.6354 -17.6157
   -16.7640 -16.7547 -16.7501 -16.7141 -16.7038 -16.6794 -16.6609  -8.8659
    -5.6278  -5.2131  -4.8422  -3.0564  -2.4315  -0.9967   0.9743   2.3246
     2.8167   4.7167   5.3158   5.7559   7.0436   7.3733   8.5731   9.4974

          k = 0.3304 0.5723 0.0000 (  9054 PWs)   bands (ev):

   -65.9859 -65.0208 -32.7722 -32.7008 -32.6973 -31.6437 -31.6286 -31.5521
   -22.8804 -17.7046 -17.7033 -17.7012 -17.6810 -17.6793 -17.6367 -17.6148
   -16.7631 -16.7533 -16.7520 -16.7131 -16.7047 -16.6807 -16.6598  -8.8163
    -5.6071  -5.2875  -4.8041  -2.9065  -2.6324  -0.9251   1.5620   1.9524
     2.6991   4.4699   5.3478   5.6327   7.1005   7.3310   9.1504   9.6441

     the Fermi energy is     3.0609 ev

!    total energy              =   -1421.98190182 Ry
     estimated scf accuracy    <       0.00000001 Ry
     smearing contrib. (-TS)   =       0.00009737 Ry
     internal energy E=F+TS    =   -1421.98199919 Ry

     The total energy is F=E-TS. E is the sum of the following terms:
     one-electron contribution =   -6734.37361231 Ry
     hartree contribution      =    3404.72593790 Ry
     xc contribution           =    -148.33130100 Ry
     ewald contribution        =    2055.99697622 Ry

     convergence has been achieved in  15 iterations

     negative rho (up, down):  4.402E-05 0.000E+00

     Forces acting on atoms (cartesian axes, Ry/au):

     atom    1 type  1   force =     0.00000000    0.00000000   -0.04602370
     atom    2 type  2   force =     0.00000000    0.00000000   -0.01953239
     atom    3 type  1   force =    -0.00000000   -0.00000000    0.00419259
     atom    4 type  3   force =     0.00000000    0.00000000    0.06136349

     Total force =     0.079264     Total SCF correction =     0.000940


     Computing stress (Cartesian axis) and pressure


     negative rho (up, down):  4.402E-05 0.000E+00
          total   stress  (Ry/bohr**3)                   (kbar)     P=        0.29
  -0.00016589   0.00000000  -0.00000000          -24.40        0.00       -0.00
   0.00000000  -0.00016589  -0.00000000            0.00      -24.40       -0.00
   0.00000000   0.00000000   0.00033777            0.00        0.00       49.69

     Energy error            =      1.3E-02 Ry
     Gradient error          =      6.1E-02 Ry/Bohr
     Cell gradient error     =      2.4E+01 kbar

     number of scf cycles    =   3
     number of bfgs steps    =   2

     enthalpy           old  =   -1421.9692660748 Ry
     enthalpy           new  =   -1421.9819018187 Ry

     CASE: enthalpy          _new < enthalpy          _old

     new trust radius        =       0.1140195371 bohr
     new conv_thr            =       0.0000000614 Ry

     new unit-cell volume =   1076.75700 a.u.^3 (   159.55892 Ang^3 )
     density =      4.08898 g/cm^3

CELL_PARAMETERS (alat=  5.89970000)
   1.004553376  -0.000000000   0.000000000
  -0.502276687   0.869968744   0.000000000
   0.000000000   0.000000000   6.000000000

ATOMIC_POSITIONS (crystal)
Ta            0.3333333330        0.6666666670        0.0273940877    0   0   1
C             0.0000000000        0.0000000000        0.0887834490    0   0   1
Ta            0.6666666670        0.3333333330        0.1504672042    0   0   1
F            -0.0000000000       -0.0000000000        0.2248949321



     Writing output data file /scratch/as3359/Ta2CF-VCrelax-5/Ta.save/
     NEW-OLD atomic charge density approx. for the potential

     negative rho (up, down):  5.243E-05 0.000E+00
     extrapolated charge   64.44977, renormalised to   65.00000

     total cpu time spent up to now is      750.9 secs

     Self-consistent Calculation

     iteration #  1     ecut=    65.00 Ry     beta= 0.70
     CG style diagonalization
     c_bands:  1 eigenvalues not converged
     c_bands:  1 eigenvalues not converged
     c_bands:  4 eigenvalues not converged
     ethr =  1.00E-06,  avg # of iterations = 19.5

     negative rho (up, down):  1.067E-04 0.000E+00

     total cpu time spent up to now is      777.8 secs

     total energy              =   -1419.80712737 Ry
     estimated scf accuracy    <       2.21990015 Ry

     iteration #  2     ecut=    65.00 Ry     beta= 0.70
     CG style diagonalization
     ethr =  3.42E-03,  avg # of iterations =  4.2

     negative rho (up, down):  1.749E-03 0.000E+00

     total cpu time spent up to now is      784.7 secs

     total energy              =   -1415.64381671 Ry
     estimated scf accuracy    <     105.01908597 Ry

     iteration #  3     ecut=    65.00 Ry     beta= 0.70
     CG style diagonalization
     ethr =  3.42E-03,  avg # of iterations =  4.7

     negative rho (up, down):  1.757E-05 0.000E+00

     total cpu time spent up to now is      792.5 secs

     total energy              =   -1421.59157652 Ry
     estimated scf accuracy    <       4.06407010 Ry

     iteration #  4     ecut=    65.00 Ry     beta= 0.70
     CG style diagonalization
     ethr =  3.42E-03,  avg # of iterations =  3.4

     negative rho (up, down):  3.340E-05 0.000E+00

     total cpu time spent up to now is      798.6 secs

     total energy              =   -1421.96522168 Ry
     estimated scf accuracy    <       1.93646366 Ry

     iteration #  5     ecut=    65.00 Ry     beta= 0.70
     CG style diagonalization
     ethr =  2.98E-03,  avg # of iterations =  3.1

     negative rho (up, down):  5.477E-05 0.000E+00

     total cpu time spent up to now is      804.1 secs

     total energy              =   -1421.99604984 Ry
     estimated scf accuracy    <       1.01422084 Ry

     iteration #  6     ecut=    65.00 Ry     beta= 0.70
     CG style diagonalization
     ethr =  1.56E-03,  avg # of iterations =  3.1

     negative rho (up, down):  7.868E-05 0.000E+00

     total cpu time spent up to now is      809.5 secs

     total energy              =   -1422.00159598 Ry
     estimated scf accuracy    <       0.55808763 Ry

     iteration #  7     ecut=    65.00 Ry     beta= 0.70
     CG style diagonalization
     ethr =  8.59E-04,  avg # of iterations =  3.1

     negative rho (up, down):  6.614E-05 0.000E+00

     total cpu time spent up to now is      815.0 secs

     total energy              =   -1421.99971545 Ry
     estimated scf accuracy    <       0.35080107 Ry

     iteration #  8     ecut=    65.00 Ry     beta= 0.70
     CG style diagonalization
     ethr =  5.40E-04,  avg # of iterations =  3.1

     negative rho (up, down):  5.942E-05 0.000E+00

     total cpu time spent up to now is      820.5 secs

     total energy              =   -1421.99863478 Ry
     estimated scf accuracy    <       0.21487058 Ry

     iteration #  9     ecut=    65.00 Ry     beta= 0.70
     CG style diagonalization
     ethr =  3.31E-04,  avg # of iterations =  3.1

     negative rho (up, down):  5.779E-04 0.000E+00

     total cpu time spent up to now is      826.0 secs

     total energy              =   -1421.98470814 Ry
     estimated scf accuracy    <       0.14723335 Ry

     iteration # 10     ecut=    65.00 Ry     beta= 0.70
     CG style diagonalization
     ethr =  2.27E-04,  avg # of iterations =  3.2

     negative rho (up, down):  2.606E-03 0.000E+00

     total cpu time spent up to now is      831.6 secs

     total energy              =   -1421.98801519 Ry
     estimated scf accuracy    <       0.01517397 Ry

     iteration # 11     ecut=    65.00 Ry     beta= 0.70
     CG style diagonalization
     c_bands:  1 eigenvalues not converged
     ethr =  2.33E-05,  avg # of iterations =  4.3

     negative rho (up, down):  1.300E-03 0.000E+00

     total cpu time spent up to now is      838.7 secs

     total energy              =   -1421.99523422 Ry
     estimated scf accuracy    <       0.03206115 Ry

     iteration # 12     ecut=    65.00 Ry     beta= 0.70
     CG style diagonalization
     ethr =  2.33E-05,  avg # of iterations =  3.3

     negative rho (up, down):  5.412E-04 0.000E+00

     total cpu time spent up to now is      844.5 secs

     total energy              =   -1421.99663403 Ry
     estimated scf accuracy    <       0.03324421 Ry

     iteration # 13     ecut=    65.00 Ry     beta= 0.70
     CG style diagonalization
     ethr =  2.33E-05,  avg # of iterations =  3.1

     negative rho (up, down):  3.493E-04 0.000E+00

     total cpu time spent up to now is      850.0 secs

     total energy              =   -1421.99956933 Ry
     estimated scf accuracy    <       0.04559348 Ry

     iteration # 14     ecut=    65.00 Ry     beta= 0.70
     CG style diagonalization
     ethr =  2.33E-05,  avg # of iterations =  3.1

     negative rho (up, down):  3.563E-04 0.000E+00

     total cpu time spent up to now is      855.5 secs

     total energy              =   -1421.99558828 Ry
     estimated scf accuracy    <       0.11252174 Ry

     iteration # 15     ecut=    65.00 Ry     beta= 0.70
     CG style diagonalization
     ethr =  2.33E-05,  avg # of iterations =  3.1

     negative rho (up, down):  2.338E-04 0.000E+00

     total cpu time spent up to now is      860.9 secs

     total energy              =   -1421.99208613 Ry
     estimated scf accuracy    <       0.04228063 Ry

     iteration # 16     ecut=    65.00 Ry     beta= 0.70
     CG style diagonalization
     ethr =  2.33E-05,  avg # of iterations =  3.2

     negative rho (up, down):  5.382E-05 0.000E+00

     total cpu time spent up to now is      866.6 secs

     total energy              =   -1421.99415141 Ry
     estimated scf accuracy    <       0.00041596 Ry

     iteration # 17     ecut=    65.00 Ry     beta= 0.70
     CG style diagonalization
     ethr =  6.40E-07,  avg # of iterations =  4.0

     negative rho (up, down):  3.515E-05 0.000E+00

     total cpu time spent up to now is      873.4 secs

     total energy              =   -1421.99429838 Ry
     estimated scf accuracy    <       0.00004193 Ry

     iteration # 18     ecut=    65.00 Ry     beta= 0.70
     CG style diagonalization
     ethr =  6.45E-08,  avg # of iterations =  3.9

     negative rho (up, down):  3.358E-05 0.000E+00

     total cpu time spent up to now is      879.9 secs

     total energy              =   -1421.99431082 Ry
     estimated scf accuracy    <       0.00000787 Ry

     iteration # 19     ecut=    65.00 Ry     beta= 0.70
     CG style diagonalization
     ethr =  1.21E-08,  avg # of iterations =  4.0

     negative rho (up, down):  4.325E-05 0.000E+00

     total cpu time spent up to now is      886.6 secs

     total energy              =   -1421.99431518 Ry
     estimated scf accuracy    <       0.00000598 Ry

     iteration # 20     ecut=    65.00 Ry     beta= 0.70
     CG style diagonalization
     ethr =  9.21E-09,  avg # of iterations =  3.3

     negative rho (up, down):  4.513E-05 0.000E+00

     total cpu time spent up to now is      892.3 secs

     total energy              =   -1421.99431619 Ry
     estimated scf accuracy    <       0.00000102 Ry

     iteration # 21     ecut=    65.00 Ry     beta= 0.70
     CG style diagonalization
     ethr =  1.57E-09,  avg # of iterations =  3.8

     negative rho (up, down):  4.596E-05 0.000E+00

     total cpu time spent up to now is      898.7 secs

     total energy              =   -1421.99431664 Ry
     estimated scf accuracy    <       0.00000039 Ry

     iteration # 22     ecut=    65.00 Ry     beta= 0.70
     CG style diagonalization
     ethr =  5.95E-10,  avg # of iterations =  3.7

     negative rho (up, down):  4.756E-05 0.000E+00

     total cpu time spent up to now is      904.9 secs

     End of self-consistent calculation

          k = 0.0000 0.0000 0.0000 (  9133 PWs)   bands (ev):

   -66.0842 -65.1596 -32.9156 -32.3298 -32.3298 -31.7757 -31.3493 -31.3493
   -22.8267 -17.7745 -17.7618 -17.7618 -17.7536 -17.7536 -17.7214 -17.6732
   -16.8814 -16.8440 -16.8440 -16.8256 -16.8256 -16.8086 -16.7580 -10.2897
    -5.6680  -4.3052  -4.3052  -2.8806  -1.8886  -1.8886   1.9353   2.5344
     2.5781   2.5781   4.1268   4.1538   4.1538   6.0411   6.0411   6.4028

          k = 0.0000 0.0958 0.0000 (  9157 PWs)   bands (ev):

   -66.0819 -65.1576 -32.9044 -32.3765 -32.3393 -31.7702 -31.3848 -31.3573
   -22.8139 -17.7735 -17.7619 -17.7610 -17.7547 -17.7537 -17.7193 -17.6756
   -16.8802 -16.8452 -16.8443 -16.8260 -16.8247 -16.8064 -16.7602 -10.1917
    -5.5501  -4.4197  -4.3043  -2.8205  -2.1042  -1.8672   1.7799   2.4307
     2.6532   2.7218   3.7271   4.1805   4.5803   5.9513   6.1509   7.0117

          k = 0.0000 0.1916 0.0000 (  9151 PWs)   bands (ev):

   -66.0757 -65.1519 -32.8741 -32.4988 -32.3652 -31.7591 -31.4802 -31.3792
   -22.7807 -17.7711 -17.7614 -17.7587 -17.7575 -17.7538 -17.7137 -17.6816
[...]
        k(   10) = (   0.0869046   0.3512208   0.0000000), wk =   0.1666667
        k(   11) = (   0.0869046   0.4515696   0.0000000), wk =   0.1666667
        k(   12) = (   0.0869046   0.5519184   0.0000000), wk =   0.1666667
        k(   13) = (   0.1738092   0.3010464   0.0000000), wk =   0.0833333
        k(   14) = (   0.1738092   0.4013952   0.0000000), wk =   0.1666667
        k(   15) = (   0.1738092   0.5017440   0.0000000), wk =   0.1666667
        k(   16) = (   0.1738092   0.6020928   0.0000000), wk =   0.0833333
        k(   17) = (   0.2607138   0.4515696   0.0000000), wk =   0.0833333
        k(   18) = (   0.2607138   0.5519184   0.0000000), wk =   0.1666667
        k(   19) = (   0.3476184   0.6020928   0.0000000), wk =   0.0277778

     Dense  grid:   243299 G-vectors     FFT dimensions: (  45,  45, 288)

     Smooth grid:    69703 G-vectors     FFT dimensions: (  30,  30, 192)

     Estimated max dynamical RAM per process >       1.22 GB

     Estimated total dynamical RAM >       2.44 GB

     Initial potential from superposition of free atoms

     starting charge   64.99842, renormalised to   65.00000

     negative rho (up, down):  7.213E-05 0.000E+00
     Starting wfcs are   42 randomized atomic wfcs

     total cpu time spent up to now is     2269.6 secs

     Self-consistent Calculation

     iteration #  1     ecut=    65.00 Ry     beta= 0.70
     CG style diagonalization
     c_bands:  1 eigenvalues not converged
     c_bands:  2 eigenvalues not converged
     c_bands:  2 eigenvalues not converged
     c_bands:  3 eigenvalues not converged
     c_bands:  3 eigenvalues not converged
     c_bands:  3 eigenvalues not converged
     c_bands:  4 eigenvalues not converged
     c_bands:  2 eigenvalues not converged
     c_bands:  4 eigenvalues not converged
     c_bands:  4 eigenvalues not converged
     c_bands:  4 eigenvalues not converged
     c_bands:  3 eigenvalues not converged
     c_bands:  2 eigenvalues not converged
     c_bands:  5 eigenvalues not converged
     c_bands:  1 eigenvalues not converged
     ethr =  1.00E-06,  avg # of iterations = 10.5

     negative rho (up, down):  6.530E-05 0.000E+00

     total cpu time spent up to now is     2284.5 secs

     total energy              =   -1421.30794941 Ry
     estimated scf accuracy    <       1.23384224 Ry

     iteration #  2     ecut=    65.00 Ry     beta= 0.70
     CG style diagonalization
     ethr =  1.90E-03,  avg # of iterations =  3.5

     negative rho (up, down):  1.094E-04 0.000E+00

     total cpu time spent up to now is     2290.1 secs

     total energy              =   -1420.47075394 Ry
     estimated scf accuracy    <       7.78048357 Ry

     iteration #  3     ecut=    65.00 Ry     beta= 0.70
     CG style diagonalization
     ethr =  1.90E-03,  avg # of iterations =  3.7

     negative rho (up, down):  9.591E-05 0.000E+00

     total cpu time spent up to now is     2296.1 secs

     total energy              =   -1421.27984803 Ry
     estimated scf accuracy    <      11.76480683 Ry

     iteration #  4     ecut=    65.00 Ry     beta= 0.70
     CG style diagonalization
     ethr =  1.90E-03,  avg # of iterations =  3.2

     negative rho (up, down):  6.824E-05 0.000E+00

     total cpu time spent up to now is     2301.4 secs

     total energy              =   -1421.97603537 Ry
     estimated scf accuracy    <       0.22526762 Ry

     iteration #  5     ecut=    65.00 Ry     beta= 0.70
     CG style diagonalization
     ethr =  3.47E-04,  avg # of iterations =  3.4

     negative rho (up, down):  6.778E-05 0.000E+00

     total cpu time spent up to now is     2307.0 secs

     total energy              =   -1422.01506187 Ry
     estimated scf accuracy    <       0.06096347 Ry

     iteration #  6     ecut=    65.00 Ry     beta= 0.70
     CG style diagonalization
     ethr =  9.38E-05,  avg # of iterations =  3.4

     negative rho (up, down):  6.620E-05 0.000E+00

     total cpu time spent up to now is     2312.5 secs

     total energy              =   -1422.02030174 Ry
     estimated scf accuracy    <       0.00506605 Ry

     iteration #  7     ecut=    65.00 Ry     beta= 0.70
     CG style diagonalization
     ethr =  7.79E-06,  avg # of iterations =  4.1

     negative rho (up, down):  6.900E-05 0.000E+00

     total cpu time spent up to now is     2318.9 secs

     total energy              =   -1422.02136598 Ry
     estimated scf accuracy    <       0.00070589 Ry

     iteration #  8     ecut=    65.00 Ry     beta= 0.70
     CG style diagonalization
     ethr =  1.09E-06,  avg # of iterations =  4.2

     negative rho (up, down):  7.084E-05 0.000E+00

     total cpu time spent up to now is     2325.4 secs

     total energy              =   -1422.02168163 Ry
     estimated scf accuracy    <       0.00008089 Ry

     iteration #  9     ecut=    65.00 Ry     beta= 0.70
     CG style diagonalization
     ethr =  1.24E-07,  avg # of iterations =  4.1

     negative rho (up, down):  7.072E-05 0.000E+00

     total cpu time spent up to now is     2331.9 secs

     total energy              =   -1422.02171865 Ry
     estimated scf accuracy    <       0.00012112 Ry

     iteration # 10     ecut=    65.00 Ry     beta= 0.70
     CG style diagonalization
     ethr =  1.24E-07,  avg # of iterations =  3.2

     negative rho (up, down):  7.094E-05 0.000E+00

     total cpu time spent up to now is     2337.1 secs

     total energy              =   -1422.02172761 Ry
     estimated scf accuracy    <       0.00000436 Ry

     iteration # 11     ecut=    65.00 Ry     beta= 0.70
     CG style diagonalization
     ethr =  6.71E-09,  avg # of iterations =  3.9

     negative rho (up, down):  7.094E-05 0.000E+00

     total cpu time spent up to now is     2343.3 secs

     total energy              =   -1422.02172954 Ry
     estimated scf accuracy    <       0.00000335 Ry

     iteration # 12     ecut=    65.00 Ry     beta= 0.70
     CG style diagonalization
     ethr =  5.15E-09,  avg # of iterations =  3.4

     negative rho (up, down):  7.096E-05 0.000E+00

     total cpu time spent up to now is     2348.8 secs

     total energy              =   -1422.02173011 Ry
     estimated scf accuracy    <       0.00000088 Ry

     iteration # 13     ecut=    65.00 Ry     beta= 0.70
     CG style diagonalization
     ethr =  1.36E-09,  avg # of iterations =  3.4

     negative rho (up, down):  7.096E-05 0.000E+00

     total cpu time spent up to now is     2354.2 secs

     total energy              =   -1422.02173029 Ry
     estimated scf accuracy    <       0.00000005 Ry

     iteration # 14     ecut=    65.00 Ry     beta= 0.70
     CG style diagonalization
     ethr =  7.90E-11,  avg # of iterations =  4.8

     negative rho (up, down):  7.096E-05 0.000E+00

     total cpu time spent up to now is     2361.4 secs

     total energy              =   -1422.02173043 Ry
     estimated scf accuracy    <       0.00000002 Ry

     iteration # 15     ecut=    65.00 Ry     beta= 0.70
     CG style diagonalization
     ethr =  2.71E-11,  avg # of iterations =  4.4

     negative rho (up, down):  7.096E-05 0.000E+00

     total cpu time spent up to now is     2368.2 secs

     total energy              =   -1422.02173047 Ry
     estimated scf accuracy    <          8.9E-09 Ry

     iteration # 16     ecut=    65.00 Ry     beta= 0.70
     CG style diagonalization
     ethr =  1.36E-11,  avg # of iterations =  4.0

     negative rho (up, down):  7.096E-05 0.000E+00

     total cpu time spent up to now is     2374.3 secs

     End of self-consistent calculation

          k = 0.0000 0.0000 0.0000 (  8761 PWs)   bands (ev):

   -65.4669 -64.5659 -32.3296 -31.5621 -31.5621 -31.2403 -30.6236 -30.6236
   -22.3081 -17.1198 -17.1077 -17.1077 -17.0908 -17.0908 -17.0737 -17.0023
   -16.2502 -16.2104 -16.2104 -16.2038 -16.2038 -16.1929 -16.1212  -9.9192
    -5.3055  -3.4665  -3.4665  -2.7139  -0.5496  -0.5496   1.2988   2.8221
     3.4232   3.4232   5.1358   5.1359   5.1601   6.2144   6.2144   6.5376

          k =-0.0000 0.1003 0.0000 (  8703 PWs)   bands (ev):

   -65.4629 -64.5620 -32.3147 -31.6286 -31.5757 -31.2308 -30.6801 -30.6363
   -22.2911 -17.1184 -17.1078 -17.1063 -17.0926 -17.0911 -17.0703 -17.0057
   -16.2486 -16.2122 -16.2107 -16.2044 -16.2025 -16.1897 -16.1245  -9.8055
    -5.1596  -3.6213  -3.4747  -2.6283  -0.8668  -0.5308   1.3832   2.8445
     3.0046   3.6274   4.7031   5.0531   5.4978   6.2077   6.4070   7.3150

          k =-0.0000 0.2007 0.0000 (  8683 PWs)   bands (ev):

   -65.4519 -64.5514 -32.2739 -31.8024 -31.6126 -31.2097 -30.8316 -30.6709
   -22.2471 -17.1157 -17.1070 -17.1026 -17.0972 -17.0919 -17.0615 -17.0149
   -16.2447 -16.2172 -16.2118 -16.2055 -16.1989 -16.1813 -16.1333  -9.5034
    -4.8285  -3.9629  -3.5092  -2.4350  -1.5248  -0.4945   1.4142   2.2514
     2.9582   4.2101   4.5311   5.0953   5.7661   6.5289   6.7224   8.3013

          k =-0.0000 0.3010 0.0000 (  8651 PWs)   bands (ev):

   -65.4368 -64.5370 -32.2183 -32.0282 -31.6626 -31.1859 -31.0315 -30.7178
   -22.1925 -17.1141 -17.1055 -17.1007 -17.0993 -17.0916 -17.0495 -17.0266
   -16.2399 -16.2239 -16.2139 -16.2059 -16.1939 -16.1698 -16.1446  -9.1142
    -4.6036  -4.3186  -3.5791  -2.3924  -1.9039  -0.4827   0.8574   2.2516
     3.2359   4.6714   5.0227   5.6035   5.9992   6.9606   6.9712   9.0616

          k =-0.0000 0.4014 0.0000 (  8668 PWs)   bands (ev):

   -65.4217 -64.5225 -32.2478 -32.1597 -31.7121 -31.2296 -31.1585 -30.7642
   -22.1434 -17.1143 -17.1090 -17.0999 -17.0963 -17.0879 -17.0375 -17.0375
   -16.2362 -16.2302 -16.2165 -16.2052 -16.1887 -16.1581 -16.1551  -8.7581
    -4.8089  -4.4165  -3.6684  -2.7928  -1.7128  -0.5118   0.3265   2.7122
     3.7941   5.1097   5.8384   6.1634   6.5538   7.2614   7.2632   9.7354

          k =-0.0000 0.5017 0.0000 (  8682 PWs)   bands (ev):

   -65.4106 -64.5119 -32.4003 -32.1211 -31.7481 -31.3634 -31.1452 -30.7980
   -22.1106 -17.1163 -17.1101 -17.1018 -17.0921 -17.0841 -17.0447 -17.0287
   -16.2358 -16.2333 -16.2188 -16.2038 -16.1849 -16.1621 -16.1494  -8.5229
    -5.0500  -4.4806  -3.7425  -3.0539  -1.6735  -0.5541   0.0627   3.4021
     4.4147   5.7047   6.1875   6.4043   7.2773   7.4349   8.0969  10.7882

          k = 0.0000-0.6021 0.0000 (  8704 PWs)   bands (ev):

   -65.4065 -64.5080 -32.4556 -32.1070 -31.7612 -31.4116 -31.1399 -30.8103
   -22.0993 -17.1175 -17.1101 -17.1027 -17.0905 -17.0826 -17.0472 -17.0255
   -16.2371 -16.2331 -16.2198 -16.2031 -16.1835 -16.1645 -16.1461  -8.4431
    -5.1376  -4.5167  -3.7710  -3.1383  -1.6949  -0.5732  -0.0115   3.7153
     4.7701   5.9851   6.2109   6.5299   7.4776   7.6685   8.6347  10.5070

          k = 0.0869 0.1505 0.0000 (  8703 PWs)   bands (ev):

   -65.4554 -64.5548 -32.2869 -31.7450 -31.6044 -31.2159 -30.7810 -30.6630
   -22.2606 -17.1162 -17.1078 -17.1035 -17.0958 -17.0917 -17.0643 -17.0121
   -16.2459 -16.2156 -16.2115 -16.2052 -16.2001 -16.1840 -16.1306  -9.5973
    -4.9183  -3.8547  -3.5082  -2.4912  -1.3196  -0.5480   1.5096   2.3324
     2.9692   3.9982   4.7188   4.7530   5.8145   6.3919   6.7257   8.0639

          k = 0.0869 0.2509 0.0000 (  8684 PWs)   bands (ev):

   -65.4423 -64.5423 -32.2385 -31.9356 -31.6567 -31.1937 -30.9492 -30.7113
   -22.2116 -17.1135 -17.1064 -17.1007 -17.0998 -17.0919 -17.0539 -17.0226
   -16.2414 -16.2213 -16.2132 -16.2060 -16.1958 -16.1740 -16.1408  -9.2494
    -4.6219  -4.1915  -3.5840  -2.3104  -1.8328  -0.6227   1.3203   2.0046
     3.1747   4.1472   5.0128   5.2325   6.0932   6.5484   7.3399   8.7708

          k = 0.0869 0.3512 0.0000 (  8670 PWs)   bands (ev):

   -65.4272 -64.5278 -32.1854 -32.1436 -31.7168 -31.1753 -31.1321 -30.7669
   -22.1602 -17.1126 -17.1071 -17.1003 -17.0992 -17.0893 -17.0420 -17.0341
   -16.2368 -16.2275 -16.2157 -16.2059 -16.1910 -16.1624 -16.1518  -8.8727
    -4.6401  -4.3768  -3.6924  -2.5893  -1.7412  -0.7161   0.7418   2.4213
     3.3799   4.4777   5.7042   6.0826   6.3781   6.9131   7.6947   9.5571

          k = 0.0869 0.4516 0.0000 (  8684 PWs)   bands (ev):

   -65.4141 -64.5153 -32.3246 -32.1328 -31.7683 -31.2968 -31.1487 -30.8145
   -22.1197 -17.1142 -17.1092 -17.1011 -17.0948 -17.0856 -17.0435 -17.0316
   -16.2343 -16.2321 -16.2183 -16.2047 -16.1869 -16.1608 -16.1522  -8.5734
    -4.9045  -4.4131  -3.8157  -2.8898  -1.6032  -0.8284   0.4662   3.0312
     3.7765   5.1784   6.0792   6.4621   7.1045   7.6656   7.8554  10.1869

          k = 0.0869 0.5519 0.0000 (  8702 PWs)   bands (ev):

   -65.4065 -64.5080 -32.4240 -32.1059 -31.7977 -31.3841 -31.1387 -30.8419
   -22.0978 -17.1162 -17.1094 -17.1024 -17.0913 -17.0835 -17.0484 -17.0256
   -16.2360 -16.2320 -16.2201 -16.2033 -16.1847 -16.1656 -16.1462  -8.4145
    -5.0552  -4.4787  -3.8963  -3.0224  -1.6088  -0.9178   0.3815   3.5792
     4.2261   5.8222   6.1085   6.6790   7.6083   7.7124   8.6805  10.2710

          k = 0.1738 0.3010 0.0000 (  8653 PWs)   bands (ev):

   -65.4292 -64.5297 -32.1903 -32.0948 -31.7346 -31.1743 -31.0895 -30.7819
   -22.1661 -17.1108 -17.1053 -17.1040 -17.0992 -17.0896 -17.0437 -17.0331
   -16.2368 -16.2262 -16.2155 -16.2063 -16.1919 -16.1640 -16.1509  -8.9101
    -4.5444  -4.3499  -3.7335  -2.4755  -1.7326  -0.9123   1.1256   2.0939
     3.4074   3.9315   5.6512   6.1464   6.3831   6.7377   8.1677   9.4283

          k = 0.1738 0.4014 0.0000 (  8671 PWs)   bands (ev):

   -65.4162 -64.5172 -32.2443 -32.1392 -31.8200 -31.2261 -31.1491 -30.8592
   -22.1240 -17.1118 -17.1061 -17.1014 -17.0991 -17.0865 -17.0437 -17.0332
   -16.2327 -16.2303 -16.2184 -16.2056 -16.1888 -16.1610 -16.1538  -8.5837
    -4.7616  -4.3034  -3.9277  -2.7258  -1.5348  -1.1336   1.0133   2.5856
     3.1524   4.6375   5.9592   6.5549   7.1480   7.5008   8.6126   9.8757

          k = 0.1738 0.5017 0.0000 (  8679 PWs)   bands (ev):

   -65.4065 -64.5080 -32.3466 -32.1039 -31.8844 -31.3164 -31.1366 -30.9176
   -22.0950 -17.1137 -17.1070 -17.1019 -17.0939 -17.0849 -17.0508 -17.0259
   -16.2337 -16.2294 -16.2210 -16.2038 -16.1872 -16.1679 -16.1464  -8.3561
    -4.9106  -4.3584  -4.0818  -2.8407  -1.5405  -1.2598   1.0560   3.1593
     3.3515   5.3942   6.0227   6.6920   7.5664   7.9590   9.0787  10.0268

          k = 0.1738 0.6021 0.0000 (  8704 PWs)   bands (ev):

   -65.4030 -64.5046 -32.3833 -32.0909 -31.9082 -31.3492 -31.1317 -30.9392
   -22.0848 -17.1144 -17.1077 -17.1021 -17.0913 -17.0850 -17.0534 -17.0233
   -16.2345 -16.2287 -16.2222 -16.2028 -16.1868 -16.1704 -16.1437  -8.2759
    -4.9544  -4.4176  -4.1268  -2.8665  -1.5668  -1.3145   1.0646   3.4543
     3.5830   5.8928   6.0029   6.6117   7.5132   7.9316   9.6047   9.9208

          k = 0.2607 0.4516 0.0000 (  8675 PWs)   bands (ev):

   -65.4065 -64.5080 -32.2944 -32.1030 -31.9411 -31.2701 -31.1357 -30.9678
   -22.0936 -17.1126 -17.1046 -17.1014 -17.0969 -17.0855 -17.0521 -17.0261
   -16.2324 -16.2279 -16.2217 -16.2042 -16.1884 -16.1691 -16.1465  -8.3262
    -4.8555  -4.2747  -4.1468  -2.7514  -1.7207  -1.1954   1.5559   2.7929
     2.8910   5.1679   5.9832   6.7021   7.5638   8.0349   9.2932   9.9637

          k = 0.2607 0.5519 0.0000 (  8686 PWs)   bands (ev):

   -65.4010 -64.5027 -32.3033 -32.0814 -32.0308 -31.2786 -31.1275 -31.0486
   -22.0765 -17.1126 -17.1068 -17.0996 -17.0928 -17.0868 -17.0569 -17.0221
   -16.2321 -16.2256 -16.2245 -16.2021 -16.1896 -16.1739 -16.1423  -8.1750
    -4.8888  -4.4174  -4.1550  -2.7000  -1.9827  -1.1467   1.8892   2.9220
     3.1821   5.6196   6.1197   6.3929   7.2788   7.8895   9.7171  10.5151

          k = 0.3476 0.6021 0.0000 (  8685 PWs)   bands (ev):

   -65.3990 -64.5007 -32.2345 -32.1379 -32.0724 -31.2115 -31.1507 -31.1241
   -22.0696 -17.1116 -17.1078 -17.0975 -17.0903 -17.0902 -17.0593 -17.0207
   -16.2292 -16.2283 -16.2237 -16.2007 -16.1915 -16.1762 -16.1408  -8.1035
    -4.8811  -4.4954  -4.1108  -2.5136  -2.3163  -1.0610   2.4948   2.7387
     3.0663   5.7737   5.9176   6.2908   7.0701   7.6216  10.0102  11.6568

     the Fermi energy is     3.4211 ev

!    total energy              =   -1422.02173048 Ry
     estimated scf accuracy    <          3.5E-10 Ry
     smearing contrib. (-TS)   =      -0.00012769 Ry
     internal energy E=F+TS    =   -1422.02160280 Ry

     The total energy is F=E-TS. E is the sum of the following terms:
     one-electron contribution =   -6864.49271735 Ry
     hartree contribution      =    3471.13638251 Ry
     xc contribution           =    -148.33436113 Ry
     ewald contribution        =    2119.66909317 Ry

     convergence has been achieved in  16 iterations

     negative rho (up, down):  7.096E-05 0.000E+00

     Forces acting on atoms (cartesian axes, Ry/au):

     atom    1 type  1   force =     0.00000000   -0.00000000    0.00017152
     atom    2 type  2   force =     0.00000000   -0.00000000   -0.00005114
     atom    3 type  1   force =    -0.00000000    0.00000000   -0.00042754
     atom    4 type  3   force =    -0.00000000    0.00000000    0.00030716

     Total force =     0.000556     Total SCF correction =     0.000081
     SCF correction compared to forces is large: reduce conv_thr to get better values


     Computing stress (Cartesian axis) and pressure


     negative rho (up, down):  7.096E-05 0.000E+00
          total   stress  (Ry/bohr**3)                   (kbar)     P=       -1.91
  -0.00000831   0.00000000   0.00000000           -1.22        0.00        0.00
   0.00000000  -0.00000831   0.00000000            0.00       -1.22        0.00
   0.00000000   0.00000000  -0.00002243            0.00        0.00       -3.30


     Writing output data file /scratch/as3359/Ta2CF-VCrelax-5/Ta.save/
 
     init_run     :     33.13s CPU     21.79s WALL (       2 calls)
     electrons    :   3869.32s CPU   2044.05s WALL (      12 calls)
     update_pot   :    161.86s CPU     99.30s WALL (      10 calls)
     forces       :    121.02s CPU     62.26s WALL (      12 calls)
     stress       :    301.62s CPU    155.96s WALL (      12 calls)

     Called by init_run:
     wfcinit      :      3.56s CPU      1.85s WALL (       2 calls)
     potinit      :      8.10s CPU      4.08s WALL (       2 calls)
     hinit0       :     19.15s CPU     14.39s WALL (       2 calls)

     Called by electrons:
     c_bands      :   3001.46s CPU   1528.47s WALL (     258 calls)
     sum_band     :    534.18s CPU    313.25s WALL (     258 calls)
     v_of_rho     :     46.95s CPU     23.90s WALL (     270 calls)
     newd         :    287.66s CPU    180.12s WALL (     270 calls)
     mix_rho      :      8.40s CPU      4.30s WALL (     258 calls)

     Called by c_bands:
     init_us_2    :     21.68s CPU     10.89s WALL (   10298 calls)
     ccgdiagg     :   2623.91s CPU   1336.45s WALL (    5197 calls)
     wfcrot       :    358.90s CPU    182.37s WALL (    5007 calls)

     Called by *cgdiagg:
     h_psi        :   1938.11s CPU    986.89s WALL (  782452 calls)
     s_psi        :    411.09s CPU    209.86s WALL ( 1559897 calls)

     Called by h_psi:
     h_psi:calbec :    214.56s CPU    109.30s WALL (  782452 calls)
     vloc_psi     :   1480.33s CPU    754.11s WALL (  782452 calls)
     add_vuspsi   :    216.13s CPU    110.25s WALL (  782452 calls)
     hs_1psi      :   1841.37s CPU    937.31s WALL (  777445 calls)
     s_1psi       :    413.97s CPU    210.12s WALL (  777445 calls)

     General routines
     calbec       :    415.77s CPU    212.64s WALL ( 1565939 calls)
     fft          :     24.81s CPU     12.67s WALL (    3796 calls)
     ffts         :      0.94s CPU      0.48s WALL (     528 calls)
     fftw         :   1436.32s CPU    731.63s WALL ( 2151682 calls)
     interpolate  :      2.71s CPU      1.38s WALL (     270 calls)
 
     Parallel routines
 
     PWSCF        :      1h14m CPU  39m52.00s WALL

 
   This run was terminated on:  18:37: 1   6Apr2022            

=------------------------------------------------------------------------------=
   JOB DONE.
=------------------------------------------------------------------------------=
