
     Program PWSCF v.6.8 starts on 22Apr2022 at  7:43: 9 

     This program is part of the open-source Quantum ESPRESSO suite
     for quantum simulation of materials; please cite
         "P. Giannozzi et al., J. Phys.:Condens. Matter 21 395502 (2009);
         "P. Giannozzi et al., J. Phys.:Condens. Matter 29 465901 (2017);
         "P. Giannozzi et al., J. Chem. Phys. 152 154105 (2020);
          URL http://www.quantum-espresso.org", 
     in publications or presentations arising from this work. More details at
     http://www.quantum-espresso.org/quote

     Parallel version (MPI & OpenMP), running on       4 processor cores
     Number of MPI processes:                 2
     Threads/MPI process:                     2

     MPI processes distributed on     1 nodes
     R & G space division:  proc/nbgrp/npool/nimage =       2
     125261 MiB available memory on the printing compute node when the environment starts
 
     Reading input from Ta2CH2.vcrelax.in

     Current dimensions of program PWSCF are:
     Max number of different atomic species (ntypx) = 10
     Max number of k-points (npk) =  40000
     Max angular momentum in pseudopotentials (lmaxx) =  4
     file Ta.pbesol-spfn-rrkjus_psl.1.0.0.UPF: wavefunction(s)  5S 5P renormalized
     Message from routine setup:
     using ibrav=0 with symmetry is DISCOURAGED, use correct ibrav instead

     Subspace diagonalization in iterative solution of the eigenvalue problem:
     a serial algorithm will be used

 
     Parallelization info
     --------------------
     sticks:   dense  smooth     PW     G-vecs:    dense   smooth      PW
     Min         807     324     98               250741    63556   10218
     Max         808     325    101               250768    63579   10229
     Sum        1615     649    199               501509   127135   20447
 
     Using Slab Decomposition
 


     bravais-lattice index     =            0
     lattice parameter (alat)  =       5.5500  a.u.
     unit-cell volume          =    1603.2166 (a.u.)^3
     number of atoms/cell      =            5
     number of atomic types    =            3
     number of electrons       =        60.00
     number of Kohn-Sham states=           36
     kinetic-energy cutoff     =      70.0000  Ry
     charge density cutoff     =     700.0000  Ry
     scf convergence threshold =      1.0E-12
     mixing beta               =       0.7000
     number of iterations used =            8  plain     mixing
     energy convergence thresh.=      1.0E-04
     force convergence thresh. =      1.0E-03
     press convergence thresh. =      5.0E-01
     Exchange-correlation= PBESOL
                           (   1   4  10   8   0   0   0)
     nstep                     =           50


     celldm(1)=   5.550000  celldm(2)=   0.000000  celldm(3)=   0.000000
     celldm(4)=   0.000000  celldm(5)=   0.000000  celldm(6)=   0.000000

     crystal axes: (cart. coord. in units of alat)
               a(1) = (   1.040618   0.000000   0.000000 )  
               a(2) = (  -0.520309   0.901202   0.000000 )  
               a(3) = (   0.000000   0.000000  10.000000 )  

     reciprocal axes: (cart. coord. in units 2 pi/alat)
               b(1) = (  0.960967  0.554815  0.000000 )  
               b(2) = (  0.000000  1.109630  0.000000 )  
               b(3) = (  0.000000  0.000000  0.100000 )  


     PseudoPot. # 1 for Ta read from file:
     /shared/home/as3359/pseudo/Ta.pbesol-spfn-rrkjus_psl.1.0.0.UPF
     MD5 check sum: f099565ffaca9b150a52e9412a28e20b
     Pseudo is Ultrasoft + core correction, Zval = 27.0
     Generated using &quot;atomic&quot; code by A. Dal Corso  v.6.3
     Using radial grid of 1273 points,  8 beta functions with: 
                l(1) =   0
                l(2) =   0
                l(3) =   1
                l(4) =   1
                l(5) =   2
                l(6) =   2
                l(7) =   3
                l(8) =   3
     Q(r) pseudized with 0 coefficients 


     PseudoPot. # 2 for C  read from file:
     /shared/home/as3359/pseudo/C.pbesol-n-rrkjus_psl.1.0.0.UPF
     MD5 check sum: 05995be603a8a7c99da3dc4413f31573
     Pseudo is Ultrasoft + core correction, Zval =  4.0
     Generated using &quot;atomic&quot; code by A. Dal Corso  v.6.3MaX
     Using radial grid of 1073 points,  4 beta functions with: 
                l(1) =   0
                l(2) =   0
                l(3) =   1
                l(4) =   1
     Q(r) pseudized with 0 coefficients 


     PseudoPot. # 3 for H  read from file:
     /shared/home/as3359/pseudo/H.pbesol-rrkjus_psl.0.1.UPF
     MD5 check sum: 1dbb1a5c48b1283557b8117eb856a7ca
     Pseudo is Ultrasoft, Zval =  1.0
     Generated using "atomic" code by A. Dal Corso  v.5.0.2 svn rev. 9415
     Using radial grid of  929 points,  2 beta functions with: 
                l(1) =   0
                l(2) =   0
     Q(r) pseudized with 0 coefficients 


     atomic species   valence    mass     pseudopotential
        Ta            27.00   180.94788     Ta( 1.00)
        C              4.00    12.01070     C ( 1.00)
        H              1.00     1.00000     H ( 1.00)

      6 Sym. Ops. (no inversion) found



   Cartesian axes

     site n.     atom                  positions (alat units)
         1           C   tau(   1) = (   0.0000000   0.0000000   0.0000000  )
         2           Ta  tau(   2) = (   0.5203090   0.3004005  -0.4156024  )
         3           Ta  tau(   3) = (  -0.0000000   0.6008011   0.4260806  )
         4           H   tau(   4) = (  -0.0000000   0.6008011   1.0359681  )
         5           H   tau(   5) = (   0.5203090   0.3004005  -1.0359681  )

     number of k points=    19  Marzari-Vanderbilt smearing, width (Ry)=  0.0010
                       cart. coord. in units 2pi/alat
        k(    1) = (   0.0000000   0.0000000   0.0000000), wk =   0.0138889
        k(    2) = (   0.0000000   0.0924691   0.0000000), wk =   0.0833333
        k(    3) = (   0.0000000   0.1849383   0.0000000), wk =   0.0833333
        k(    4) = (   0.0000000   0.2774074   0.0000000), wk =   0.0833333
        k(    5) = (   0.0000000   0.3698766   0.0000000), wk =   0.0833333
        k(    6) = (   0.0000000   0.4623457   0.0000000), wk =   0.0833333
        k(    7) = (   0.0000000  -0.5548148   0.0000000), wk =   0.0416667
        k(    8) = (   0.0800806   0.1387037   0.0000000), wk =   0.0833333
        k(    9) = (   0.0800806   0.2311728   0.0000000), wk =   0.1666667
        k(   10) = (   0.0800806   0.3236420   0.0000000), wk =   0.1666667
        k(   11) = (   0.0800806   0.4161111   0.0000000), wk =   0.1666667
        k(   12) = (   0.0800806   0.5085803   0.0000000), wk =   0.1666667
        k(   13) = (   0.1601612   0.2774074   0.0000000), wk =   0.0833333
        k(   14) = (   0.1601612   0.3698766   0.0000000), wk =   0.1666667
        k(   15) = (   0.1601612   0.4623457   0.0000000), wk =   0.1666667
        k(   16) = (   0.1601612   0.5548148   0.0000000), wk =   0.0833333
        k(   17) = (   0.2402419   0.4161111   0.0000000), wk =   0.0833333
        k(   18) = (   0.2402419   0.5085803   0.0000000), wk =   0.1666667
        k(   19) = (   0.3203225   0.5548148   0.0000000), wk =   0.0277778

     Dense  grid:   501509 G-vectors     FFT dimensions: (  50,  50, 480)

     Smooth grid:   127135 G-vectors     FFT dimensions: (  32,  32, 300)

     Estimated max dynamical RAM per process >       2.45 GB

     Estimated total dynamical RAM >       4.91 GB

     Initial potential from superposition of free atoms

     starting charge   59.99840, renormalised to   60.00000

     negative rho (up, down):  4.227E-05 0.000E+00
     Starting wfcs are   40 randomized atomic wfcs

     total cpu time spent up to now is       18.6 secs

     Self-consistent Calculation

     iteration #  1     ecut=    70.00 Ry     beta= 0.70
     Davidson diagonalization with overlap
     ethr =  1.00E-02,  avg # of iterations =  2.2

     negative rho (up, down):  1.766E-05 0.000E+00

     total cpu time spent up to now is       25.0 secs

     total energy              =   -1375.11213905 Ry
     estimated scf accuracy    <       0.83501361 Ry

     iteration #  2     ecut=    70.00 Ry     beta= 0.70
     Davidson diagonalization with overlap
     ethr =  1.39E-03,  avg # of iterations =  4.8

     negative rho (up, down):  6.290E-05 0.000E+00

     total cpu time spent up to now is       32.1 secs

     total energy              =   -1375.14005041 Ry
     estimated scf accuracy    <       1.74186361 Ry

     iteration #  3     ecut=    70.00 Ry     beta= 0.70
     Davidson diagonalization with overlap
     ethr =  1.39E-03,  avg # of iterations =  3.2

     negative rho (up, down):  6.656E-05 0.000E+00

     total cpu time spent up to now is       38.8 secs

     total energy              =   -1375.11204597 Ry
     estimated scf accuracy    <       8.17807130 Ry

     iteration #  4     ecut=    70.00 Ry     beta= 0.70
     Davidson diagonalization with overlap
     ethr =  1.39E-03,  avg # of iterations =  2.1

     negative rho (up, down):  9.429E-05 0.000E+00

     total cpu time spent up to now is       45.0 secs

     total energy              =   -1375.37875797 Ry
     estimated scf accuracy    <       3.01869471 Ry

     iteration #  5     ecut=    70.00 Ry     beta= 0.70
     Davidson diagonalization with overlap
     ethr =  1.39E-03,  avg # of iterations =  2.0

     negative rho (up, down):  7.157E-05 0.000E+00

     total cpu time spent up to now is       51.1 secs

     total energy              =   -1375.51767871 Ry
     estimated scf accuracy    <       0.04534863 Ry

     iteration #  6     ecut=    70.00 Ry     beta= 0.70
     Davidson diagonalization with overlap
     ethr =  7.56E-05,  avg # of iterations =  3.2

     negative rho (up, down):  6.245E-05 0.000E+00

     total cpu time spent up to now is       57.4 secs

     total energy              =   -1375.51886186 Ry
     estimated scf accuracy    <       0.01894771 Ry

     iteration #  7     ecut=    70.00 Ry     beta= 0.70
     Davidson diagonalization with overlap
     ethr =  3.16E-05,  avg # of iterations =  2.1

     negative rho (up, down):  7.141E-05 0.000E+00

     total cpu time spent up to now is       63.5 secs

     total energy              =   -1375.51911162 Ry
     estimated scf accuracy    <       0.01979689 Ry

     iteration #  8     ecut=    70.00 Ry     beta= 0.70
     Davidson diagonalization with overlap
     ethr =  3.16E-05,  avg # of iterations =  1.1

     negative rho (up, down):  7.248E-05 0.000E+00

     total cpu time spent up to now is       69.4 secs

     total energy              =   -1375.51955140 Ry
     estimated scf accuracy    <       0.00146802 Ry

     iteration #  9     ecut=    70.00 Ry     beta= 0.70
     Davidson diagonalization with overlap
     ethr =  2.45E-06,  avg # of iterations =  6.8

     negative rho (up, down):  7.245E-05 0.000E+00

     total cpu time spent up to now is       76.2 secs

     total energy              =   -1375.51955279 Ry
     estimated scf accuracy    <       0.00065104 Ry

     iteration # 10     ecut=    70.00 Ry     beta= 0.70
     Davidson diagonalization with overlap
     ethr =  1.09E-06,  avg # of iterations =  1.6

     negative rho (up, down):  7.268E-05 0.000E+00

     total cpu time spent up to now is       82.3 secs

     total energy              =   -1375.51951457 Ry
     estimated scf accuracy    <       0.00019290 Ry

     iteration # 11     ecut=    70.00 Ry     beta= 0.70
     Davidson diagonalization with overlap
     ethr =  3.22E-07,  avg # of iterations =  2.6

     negative rho (up, down):  7.262E-05 0.000E+00

     total cpu time spent up to now is       88.5 secs

     total energy              =   -1375.51953779 Ry
     estimated scf accuracy    <       0.00000314 Ry

     iteration # 12     ecut=    70.00 Ry     beta= 0.70
     Davidson diagonalization with overlap
     ethr =  5.23E-09,  avg # of iterations =  5.2

     negative rho (up, down):  7.244E-05 0.000E+00

     total cpu time spent up to now is       96.0 secs

     total energy              =   -1375.51953922 Ry
     estimated scf accuracy    <       0.00000249 Ry

     iteration # 13     ecut=    70.00 Ry     beta= 0.70
     Davidson diagonalization with overlap
     ethr =  4.15E-09,  avg # of iterations =  2.1

     negative rho (up, down):  7.243E-05 0.000E+00

     total cpu time spent up to now is      102.2 secs

     total energy              =   -1375.51953947 Ry
     estimated scf accuracy    <       0.00000025 Ry

     iteration # 14     ecut=    70.00 Ry     beta= 0.70
     Davidson diagonalization with overlap
     ethr =  4.16E-10,  avg # of iterations =  2.5

     negative rho (up, down):  7.241E-05 0.000E+00

     total cpu time spent up to now is      108.5 secs

     total energy              =   -1375.51953949 Ry
     estimated scf accuracy    <       0.00000052 Ry

     iteration # 15     ecut=    70.00 Ry     beta= 0.70
     Davidson diagonalization with overlap
     ethr =  4.16E-10,  avg # of iterations =  1.5

     negative rho (up, down):  7.243E-05 0.000E+00

     total cpu time spent up to now is      114.5 secs

     total energy              =   -1375.51953951 Ry
     estimated scf accuracy    <       0.00000004 Ry

     iteration # 16     ecut=    70.00 Ry     beta= 0.70
     Davidson diagonalization with overlap
     ethr =  6.89E-11,  avg # of iterations =  1.6

     negative rho (up, down):  7.243E-05 0.000E+00

     total cpu time spent up to now is      120.4 secs

     total energy              =   -1375.51953951 Ry
     estimated scf accuracy    <          5.8E-10 Ry

     iteration # 17     ecut=    70.00 Ry     beta= 0.70
     Davidson diagonalization with overlap
     ethr =  9.73E-13,  avg # of iterations =  4.4

     negative rho (up, down):  7.243E-05 0.000E+00

     total cpu time spent up to now is      127.5 secs

     total energy              =   -1375.51953951 Ry
     estimated scf accuracy    <          4.1E-10 Ry

     iteration # 18     ecut=    70.00 Ry     beta= 0.70
     Davidson diagonalization with overlap
     ethr =  6.75E-13,  avg # of iterations =  1.5

     negative rho (up, down):  7.244E-05 0.000E+00

     total cpu time spent up to now is      133.5 secs

     total energy              =   -1375.51953951 Ry
     estimated scf accuracy    <          2.5E-11 Ry

     iteration # 19     ecut=    70.00 Ry     beta= 0.70
     Davidson diagonalization with overlap
     ethr =  1.00E-13,  avg # of iterations =  2.1

     negative rho (up, down):  7.244E-05 0.000E+00

     total cpu time spent up to now is      139.7 secs

     total energy              =   -1375.51953951 Ry
     estimated scf accuracy    <          5.3E-12 Ry

     iteration # 20     ecut=    70.00 Ry     beta= 0.70
     Davidson diagonalization with overlap
     ethr =  1.00E-13,  avg # of iterations =  1.0

     negative rho (up, down):  7.244E-05 0.000E+00

     total cpu time spent up to now is      145.5 secs

     End of self-consistent calculation

          k = 0.0000 0.0000 0.0000 ( 15945 PWs)   bands (ev):

   -69.6515 -69.6112 -36.4118 -35.9188 -35.9188 -35.8676 -35.8619 -35.8619
   -21.3170 -21.3081 -21.2808 -21.2808 -21.2667 -21.2667 -21.2502 -21.2461
   -21.2248 -21.2134 -21.2134 -21.2075 -21.2001 -21.2001 -14.7691  -9.2320
    -5.7198  -5.7198  -5.1169  -5.0656  -3.4105  -1.7418  -1.7418   0.3366
     0.3366   1.2591   1.2591   1.7939

          k = 0.0000 0.0925 0.0000 ( 15937 PWs)   bands (ev):

   -69.6478 -69.6087 -36.4021 -35.9749 -35.9340 -35.9035 -35.8686 -35.8610
   -21.3144 -21.3056 -21.2811 -21.2794 -21.2668 -21.2657 -21.2530 -21.2489
   -21.2234 -21.2149 -21.2140 -21.2064 -21.2016 -21.2002 -14.6537  -9.0127
    -6.1567  -5.6801  -5.0589  -4.7963  -3.3309  -2.0941  -1.5514  -0.3002
     0.1679   1.2306   1.5196   2.5600

          k = 0.0000 0.1849 0.0000 ( 15883 PWs)   bands (ev):

   -69.6378 -69.6021 -36.3818 -36.1106 -36.0088 -35.9732 -35.8888 -35.8584
   -21.3074 -21.2988 -21.2820 -21.2761 -21.2669 -21.2630 -21.2605 -21.2563
   -21.2203 -21.2180 -21.2158 -21.2058 -21.2034 -21.2003 -14.3472  -8.4306
    -6.8600  -5.6054  -4.9256  -4.3907  -3.3310  -2.6498  -1.0725  -1.0207
     0.1251   1.1153   1.8717   3.5522

          k = 0.0000 0.2774 0.0000 ( 15835 PWs)   bands (ev):

   -69.6238 -69.5934 -36.3964 -36.2787 -36.1115 -36.0237 -35.9190 -35.8626
   -21.2985 -21.2897 -21.2823 -21.2751 -21.2695 -21.2670 -21.2638 -21.2587
   -21.2245 -21.2182 -21.2141 -21.2105 -21.2003 -21.1997 -13.9531  -7.9792
    -7.2126  -5.5814  -4.6923  -4.0513  -3.8461  -2.4319  -1.5580  -0.2853
     0.6118   0.9843   2.0504   4.0939

          k = 0.0000 0.3699 0.0000 ( 15813 PWs)   bands (ev):

   -69.6091 -69.5852 -36.5075 -36.4225 -36.1246 -36.0721 -35.9506 -35.8748
   -21.2930 -21.2829 -21.2817 -21.2786 -21.2780 -21.2668 -21.2620 -21.2542
   -21.2295 -21.2208 -21.2174 -21.2063 -21.2003 -21.1962 -13.5952  -8.3452
    -6.7747  -5.6329  -4.7174  -4.0863  -3.4128  -1.9640  -1.6339   0.5462
     0.8280   1.5944   2.1249   4.0211

          k = 0.0000 0.4623 0.0000 ( 15860 PWs)   bands (ev):

   -69.5977 -69.5800 -36.6212 -36.5257 -36.1066 -36.0895 -35.9742 -35.8928
   -21.2923 -21.2899 -21.2857 -21.2758 -21.2718 -21.2663 -21.2588 -21.2504
   -21.2330 -21.2230 -21.2212 -21.2011 -21.2003 -21.1940 -13.3617  -8.6724
    -6.5640  -5.7058  -5.0626  -3.4842  -2.9278  -1.5918  -1.3977   0.7468
     1.3033   2.1684   2.7717   3.8638

          k = 0.0000-0.5548 0.0000 ( 15870 PWs)   bands (ev):

   -69.5932 -69.5784 -36.6644 -36.5642 -36.1191 -36.0693 -35.9830 -35.9034
   -21.2925 -21.2925 -21.2883 -21.2735 -21.2694 -21.2660 -21.2576 -21.2488
   -21.2343 -21.2239 -21.2226 -21.2002 -21.1989 -21.1935 -13.2832  -8.7862
    -6.5354  -5.7379  -5.1842  -3.1538  -2.7596  -1.3786  -1.3184   0.7876
     1.5467   2.3858   3.3140   3.8582

          k = 0.0801 0.1387 0.0000 ( 15907 PWs)   bands (ev):

   -69.6410 -69.6042 -36.3867 -36.0607 -36.0009 -35.9376 -35.8906 -35.8578
   -21.3095 -21.3010 -21.2816 -21.2773 -21.2667 -21.2640 -21.2581 -21.2540
   -21.2210 -21.2171 -21.2156 -21.2047 -21.2038 -21.2006 -14.4426  -8.6037
    -6.6548  -5.7108  -4.8932  -4.5154  -3.2144  -2.6400  -1.2340  -0.6494
    -0.2279   1.4236   1.6794   3.3429

          k = 0.0801 0.2312 0.0000 ( 15867 PWs)   bands (ev):

   -69.6290 -69.5965 -36.3796 -36.2047 -36.0988 -35.9916 -35.9254 -35.8580
   -21.3015 -21.2930 -21.2819 -21.2750 -21.2667 -21.2662 -21.2623 -21.2605
   -21.2221 -21.2184 -21.2154 -21.2081 -21.2013 -21.2010 -14.0916  -7.9473
    -7.2281  -5.8261  -4.5702  -4.1414  -3.4938  -2.8547  -1.3200  -0.6566
     0.0761   1.3415   2.0851   4.0022

          k = 0.0801 0.3236 0.0000 ( 15853 PWs)   bands (ev):

   -69.6146 -69.5881 -36.4443 -36.3565 -36.1417 -36.0538 -35.9612 -35.8658
   -21.2939 -21.2843 -21.2802 -21.2795 -21.2752 -21.2670 -21.2632 -21.2568
   -21.2270 -21.2214 -21.2138 -21.2088 -21.2015 -21.1975 -13.7152  -8.0113
    -6.9847  -5.9412  -4.2841  -4.0741  -3.6366  -2.4291  -1.6763  -0.2254
     0.8903   1.4997   2.3300   4.2379

          k = 0.0801 0.4161 0.0000 ( 15858 PWs)   bands (ev):

   -69.6014 -69.5815 -36.5624 -36.4738 -36.1334 -36.0918 -35.9887 -35.8821
   -21.2914 -21.2876 -21.2834 -21.2776 -21.2737 -21.2662 -21.2604 -21.2527
   -21.2314 -21.2236 -21.2184 -21.2032 -21.2015 -21.1947 -13.4214  -8.4150
    -6.5804  -6.0163  -4.6222  -3.6287  -3.1194  -1.9393  -1.6380  -0.0147
     1.5207   2.2530   2.5805   3.9555

          k = 0.0801 0.5086 0.0000 ( 15845 PWs)   bands (ev):

   -69.5932 -69.5784 -36.6391 -36.5411 -36.1486 -36.0813 -35.9974 -35.9001
   -21.2929 -21.2910 -21.2882 -21.2732 -21.2691 -21.2654 -21.2585 -21.2499
   -21.2339 -21.2245 -21.2217 -21.2017 -21.1993 -21.1935 -13.2680  -8.6357
    -6.4834  -6.0727  -4.8057  -3.1490  -2.7708  -1.5592  -1.4378   0.0087
     2.1525   2.3012   3.3441   3.7974

          k = 0.1602 0.2774 0.0000 ( 15858 PWs)   bands (ev):

   -69.6166 -69.5892 -36.4176 -36.3165 -36.1611 -36.0273 -35.9926 -35.8614
   -21.2944 -21.2852 -21.2800 -21.2787 -21.2742 -21.2674 -21.2628 -21.2585
   -21.2250 -21.2229 -21.2110 -21.2101 -21.2030 -21.1980 -13.7575  -7.6413
    -7.2453  -6.2076  -4.0174  -3.8240  -3.6874  -2.9198  -1.6443  -0.6293
     0.9141   1.4319   2.6290   4.4386

          k = 0.1602 0.3699 0.0000 ( 15848 PWs)   bands (ev):

   -69.6035 -69.5825 -36.5001 -36.4210 -36.1829 -36.0790 -36.0332 -35.8738
   -21.2900 -21.2863 -21.2822 -21.2782 -21.2745 -21.2668 -21.2604 -21.2558
   -21.2292 -21.2256 -21.2147 -21.2057 -21.2033 -21.1952 -13.4466  -7.9896
    -6.6684  -6.4597  -3.9654  -3.5215  -3.3118  -2.5990  -1.9362  -0.5450
     1.6268   1.9572   3.2103   4.2794

          k = 0.1602 0.4623 0.0000 ( 15846 PWs)   bands (ev):

   -69.5932 -69.5784 -36.5767 -36.4872 -36.2171 -36.1221 -36.0188 -35.8944
   -21.2930 -21.2894 -21.2870 -21.2728 -21.2688 -21.2647 -21.2596 -21.2529
   -21.2330 -21.2261 -21.2191 -21.2054 -21.2000 -21.1936 -13.2374  -8.2502
    -6.6097  -6.3621  -4.0972  -3.1120  -2.8206  -2.1180  -1.8340  -0.6315
     1.9568   2.4833   3.5121   4.0355

          k = 0.1602 0.5548 0.0000 ( 15864 PWs)   bands (ev):

   -69.5890 -69.5773 -36.6064 -36.5093 -36.2357 -36.1369 -36.0016 -35.9084
   -21.2952 -21.2912 -21.2873 -21.2707 -21.2665 -21.2634 -21.2598 -21.2515
   -21.2345 -21.2256 -21.2214 -21.2056 -21.1983 -21.1932 -13.1652  -8.3456
    -6.6354  -6.3167  -4.1522  -2.8717  -2.6847  -1.7633  -1.7308  -0.6879
     2.0893   2.4290   3.3618   3.8880

          k = 0.2402 0.4161 0.0000 ( 15846 PWs)   bands (ev):

   -69.5932 -69.5784 -36.5329 -36.4554 -36.2594 -36.1553 -36.0253 -35.8920
   -21.2931 -21.2892 -21.2855 -21.2726 -21.2686 -21.2654 -21.2581 -21.2557
   -21.2324 -21.2270 -21.2169 -21.2081 -21.2003 -21.1937 -13.2220  -7.9514
    -6.9491  -6.2966  -3.4453  -3.0886  -2.8854  -2.7162  -2.0928  -0.8030
     1.8708   2.4806   3.4727   4.2388

          k = 0.2402 0.5086 0.0000 ( 15834 PWs)   bands (ev):

   -69.5863 -69.5769 -36.5417 -36.4534 -36.3280 -36.2246 -35.9885 -35.9172
   -21.2966 -21.2925 -21.2841 -21.2691 -21.2650 -21.2629 -21.2591 -21.2546
   -21.2349 -21.2260 -21.2200 -21.2096 -21.1980 -21.1930 -13.0964  -7.9486
    -7.1419  -6.1460  -3.3114  -2.7750  -2.6624  -2.2993  -2.0315  -0.9737
     1.6914   2.1453   3.3332   3.8418

          k = 0.3203 0.5548 0.0000 ( 15774 PWs)   bands (ev):

   -69.5833 -69.5768 -36.4896 -36.4146 -36.4005 -36.2994 -35.9505 -35.9494
   -21.2980 -21.2938 -21.2825 -21.2678 -21.2638 -21.2617 -21.2585 -21.2562
   -21.2358 -21.2251 -21.2206 -21.2117 -21.1974 -21.1928 -13.0433  -7.6083
    -7.5525  -6.0438  -2.8181  -2.7508  -2.5225  -2.2919  -2.2415  -1.0781
     1.4655   1.6065   3.5954   3.6343

     the Fermi energy is    -1.9295 ev

!    total energy              =   -1375.51953951 Ry
     estimated scf accuracy    <          1.1E-13 Ry
     smearing contrib. (-TS)   =      -0.00001116 Ry
     internal energy E=F+TS    =   -1375.51952835 Ry

     The total energy is F=E-TS. E is the sum of the following terms:
     one-electron contribution =  -11179.86394845 Ry
     hartree contribution      =    5615.80000859 Ry
     xc contribution           =    -140.13414594 Ry
     ewald contribution        =    4328.67855745 Ry

     convergence has been achieved in  20 iterations

     negative rho (up, down):  7.244E-05 0.000E+00

     Forces acting on atoms (cartesian axes, Ry/au):

     atom    1 type  2   force =     0.00000000    0.00000000    0.00722167
     atom    2 type  1   force =     0.00000000    0.00000000   -0.03189240
     atom    3 type  1   force =     0.00000000    0.00000000    0.01217510
     atom    4 type  3   force =     0.00000000    0.00000000   -0.00010965
     atom    5 type  3   force =     0.00000000    0.00000000    0.01260527

     Total force =     0.036390     Total SCF correction =     0.000002


     Computing stress (Cartesian axis) and pressure


     negative rho (up, down):  7.244E-05 0.000E+00
          total   stress  (Ry/bohr**3)                   (kbar)     P=        8.96
   0.00008424  -0.00000000   0.00000000           12.39       -0.00        0.00
  -0.00000000   0.00008424   0.00000000           -0.00       12.39        0.00
   0.00000000  -0.00000000   0.00001430            0.00       -0.00        2.10


     BFGS Geometry Optimization
     Energy error            =      0.0E+00 Ry
     Gradient error          =      3.2E-02 Ry/Bohr
     Cell gradient error     =      1.2E+01 kbar

     number of scf cycles    =   1
     number of bfgs steps    =   0

     enthalpy           new  =   -1375.5195395112 Ry

     new trust radius        =       0.0318923959 bohr
     new conv_thr            =            1.0E-12 Ry

     new unit-cell volume =   1609.97642 a.u.^3 (   238.57389 Ang^3 )
     density =      2.61641 g/cm^3

CELL_PARAMETERS (alat=  5.55000000)
   1.042809473  -0.000000000   0.000000000
  -0.521404736   0.903099495   0.000000000
   0.000000000   0.000000000  10.000000000

ATOMIC_POSITIONS (crystal)
C             0.0000000000        0.0000000000        0.0000000000    0   0   0
Ta            0.6666666670        0.3333333330       -0.0421348772
Ta            0.3333333330        0.6666666670        0.0428274351
H             0.3333333330        0.6666666670        0.1035948311
H             0.6666666670        0.3333333330       -0.1033696847



     Writing output data file /scratch/as3359/Ta2CH2-VCrelax/Ta.save/
     NEW-OLD atomic charge density approx. for the potential

     negative rho (up, down):  7.944E-05 0.000E+00
     extrapolated charge   60.25191, renormalised to   60.00000

     total cpu time spent up to now is      194.2 secs

     Self-consistent Calculation

     iteration #  1     ecut=    70.00 Ry     beta= 0.70
     Davidson diagonalization with overlap
     c_bands:  3 eigenvalues not converged
     c_bands:  1 eigenvalues not converged
     c_bands:  2 eigenvalues not converged
     c_bands:  4 eigenvalues not converged
     c_bands:  3 eigenvalues not converged
     c_bands:  4 eigenvalues not converged
     c_bands:  3 eigenvalues not converged
     c_bands:  2 eigenvalues not converged
     c_bands:  4 eigenvalues not converged
     c_bands:  2 eigenvalues not converged
     c_bands:  2 eigenvalues not converged
     c_bands:  5 eigenvalues not converged
     c_bands:  5 eigenvalues not converged
     c_bands:  4 eigenvalues not converged
     c_bands:  5 eigenvalues not converged
     c_bands:  2 eigenvalues not converged
     ethr =  1.00E-06,  avg # of iterations = 21.1

     total cpu time spent up to now is      211.3 secs

     total energy              =   -1259.50644206 Ry
     estimated scf accuracy    <     124.45080615 Ry

     iteration #  2     ecut=    70.00 Ry     beta= 0.70
     Davidson diagonalization with overlap
     c_bands:  1 eigenvalues not converged
     ethr =  1.00E-02,  avg # of iterations = 13.1
     Minimization algorithm failed to find Fermi energy: reverting to bisection
     Possible cause: smearing is larger than the electronic band-gap.

     total cpu time spent up to now is      221.8 secs

     total energy              =   -1390.05362512 Ry
     estimated scf accuracy    <     118.25494729 Ry

     iteration #  3     ecut=    70.00 Ry     beta= 0.70
     Davidson diagonalization with overlap
     ethr =  1.00E-02,  avg # of iterations =  6.3

     total cpu time spent up to now is      230.2 secs

     total energy              =   -1388.68327898 Ry
     estimated scf accuracy    <      35.30478023 Ry

     iteration #  4     ecut=    70.00 Ry     beta= 0.70
     Davidson diagonalization with overlap
     ethr =  1.00E-02,  avg # of iterations =  7.0

     total cpu time spent up to now is      237.1 secs

     total energy              =   -1387.46910090 Ry
     estimated scf accuracy    <      51.47915671 Ry

     iteration #  5     ecut=    70.00 Ry     beta= 0.70
     Davidson diagonalization with overlap
     ethr =  1.00E-02,  avg # of iterations =  2.6

     total cpu time spent up to now is      243.2 secs

     total energy              =   -1379.65204937 Ry
     estimated scf accuracy    <      22.84151023 Ry

     iteration #  6     ecut=    70.00 Ry     beta= 0.70
     Davidson diagonalization with overlap
     ethr =  1.00E-02,  avg # of iterations =  4.9

     total cpu time spent up to now is      249.8 secs

     total energy              =   -1381.94895525 Ry
     estimated scf accuracy    <       6.58358596 Ry

     iteration #  7     ecut=    70.00 Ry     beta= 0.70
     Davidson diagonalization with overlap
     ethr =  1.00E-02,  avg # of iterations =  1.3

     total cpu time spent up to now is      255.6 secs

     total energy              =   -1381.52733630 Ry
     estimated scf accuracy    <       9.99581074 Ry

     iteration #  8     ecut=    70.00 Ry     beta= 0.70
     Davidson diagonalization with overlap
     ethr =  1.00E-02,  avg # of iterations =  1.0
     Minimization algorithm failed to find Fermi energy: reverting to bisection
     Possible cause: smearing is larger than the electronic band-gap.

     total cpu time spent up to now is      261.4 secs

     total energy              =   -1380.85494814 Ry
     estimated scf accuracy    <       8.40202173 Ry

     iteration #  9     ecut=    70.00 Ry     beta= 0.70
     Davidson diagonalization with overlap
     ethr =  1.00E-02,  avg # of iterations =  1.0

     total cpu time spent up to now is      267.2 secs

     total energy              =   -1379.49049621 Ry
     estimated scf accuracy    <       7.36311964 Ry

     iteration # 10     ecut=    70.00 Ry     beta= 0.70
     Davidson diagonalization with overlap
     ethr =  1.00E-02,  avg # of iterations =  1.0

     negative rho (up, down):  7.961E-05 0.000E+00

     total cpu time spent up to now is      273.0 secs

     total energy              =   -1375.04177559 Ry
     estimated scf accuracy    <       5.10535744 Ry

     iteration # 11     ecut=    70.00 Ry     beta= 0.70
     Davidson diagonalization with overlap
     ethr =  8.51E-03,  avg # of iterations =  2.8

     negative rho (up, down):  3.546E-05 0.000E+00

     total cpu time spent up to now is      279.2 secs

     total energy              =   -1375.50344547 Ry
     estimated scf accuracy    <       1.75568944 Ry

     iteration # 12     ecut=    70.00 Ry     beta= 0.70
     Davidson diagonalization with overlap
     ethr =  2.93E-03,  avg # of iterations =  2.0

     negative rho (up, down):  2.648E-05 0.000E+00

     total cpu time spent up to now is      285.3 secs

     total energy              =   -1375.56160480 Ry
     estimated scf accuracy    <       0.95867258 Ry

     iteration # 13     ecut=    70.00 Ry     beta= 0.70
     Davidson diagonalization with overlap
     ethr =  1.60E-03,  avg # of iterations =  1.2

     negative rho (up, down):  1.037E-03 0.000E+00

     total cpu time spent up to now is      291.1 secs

     total energy              =   -1375.54154053 Ry
     estimated scf accuracy    <       0.47787673 Ry

     iteration # 14     ecut=    70.00 Ry     beta= 0.70
     Davidson diagonalization with overlap
     ethr =  7.96E-04,  avg # of iterations =  1.5

     negative rho (up, down):  9.444E-04 0.000E+00

     total cpu time spent up to now is      297.0 secs

     total energy              =   -1375.53951088 Ry
     estimated scf accuracy    <       0.16328328 Ry

     iteration # 15     ecut=    70.00 Ry     beta= 0.70
     Davidson diagonalization with overlap
     ethr =  2.72E-04,  avg # of iterations =  4.2

     negative rho (up, down):  1.845E-05 0.000E+00

     total cpu time spent up to now is      303.1 secs

     total energy              =   -1375.53177967 Ry
     estimated scf accuracy    <       0.07897746 Ry

     iteration # 16     ecut=    70.00 Ry     beta= 0.70
     Davidson diagonalization with overlap
     ethr =  1.32E-04,  avg # of iterations =  1.8

     negative rho (up, down):  1.010E-06 0.000E+00

     total cpu time spent up to now is      309.0 secs

     total energy              =   -1375.53550011 Ry
     estimated scf accuracy    <       0.03946528 Ry

     iteration # 17     ecut=    70.00 Ry     beta= 0.70
     Davidson diagonalization with overlap
     ethr =  6.58E-05,  avg # of iterations =  4.1

     negative rho (up, down):  1.484E-05 0.000E+00

     total cpu time spent up to now is      315.3 secs

     total energy              =   -1375.52524981 Ry
     estimated scf accuracy    <       0.16425442 Ry

     iteration # 18     ecut=    70.00 Ry     beta= 0.70
     Davidson diagonalization with overlap
     ethr =  6.58E-05,  avg # of iterations =  2.5

     negative rho (up, down):  3.120E-06 0.000E+00

     total cpu time spent up to now is      321.4 secs

     total energy              =   -1375.51378757 Ry
     estimated scf accuracy    <       0.04476657 Ry

     iteration # 19     ecut=    70.00 Ry     beta= 0.70
     Davidson diagonalization with overlap
     ethr =  6.58E-05,  avg # of iterations =  2.3

     negative rho (up, down):  7.138E-06 0.000E+00

     total cpu time spent up to now is      327.6 secs

     total energy              =   -1375.52005231 Ry
     estimated scf accuracy    <       0.01245640 Ry

     iteration # 20     ecut=    70.00 Ry     beta= 0.70
     Davidson diagonalization with overlap
     ethr =  2.08E-05,  avg # of iterations =  2.8

     negative rho (up, down):  1.183E-05 0.000E+00

     total cpu time spent up to now is      333.9 secs

     total energy              =   -1375.52049914 Ry
     estimated scf accuracy    <       0.01114165 Ry

     iteration # 21     ecut=    70.00 Ry     beta= 0.70
     Davidson diagonalization with overlap
     ethr =  1.86E-05,  avg # of iterations =  2.1

     negative rho (up, down):  3.942E-05 0.000E+00

     total cpu time spent up to now is      339.9 secs

     total energy              =   -1375.52067231 Ry
     estimated scf accuracy    <       0.00079735 Ry

     iteration # 22     ecut=    70.00 Ry     beta= 0.70
     Davidson diagonalization with overlap
     ethr =  1.33E-06,  avg # of iterations =  8.5

     negative rho (up, down):  6.066E-05 0.000E+00

     total cpu time spent up to now is      346.8 secs

     total energy              =   -1375.52080913 Ry
     estimated scf accuracy    <       0.00008877 Ry

     iteration # 23     ecut=    70.00 Ry     beta= 0.70
     Davidson diagonalization with overlap
     ethr =  1.48E-07,  avg # of iterations =  2.0

     negative rho (up, down):  6.328E-05 0.000E+00

     total cpu time spent up to now is      353.3 secs

     total energy              =   -1375.52082190 Ry
     estimated scf accuracy    <       0.00001037 Ry

     iteration # 24     ecut=    70.00 Ry     beta= 0.70
     Davidson diagonalization with overlap
     ethr =  1.73E-08,  avg # of iterations =  2.3

     negative rho (up, down):  7.362E-05 0.000E+00

     total cpu time spent up to now is      359.4 secs

     total energy              =   -1375.52082292 Ry
     estimated scf accuracy    <       0.00000122 Ry

     iteration # 25     ecut=    70.00 Ry     beta= 0.70
     Davidson diagonalization with overlap
     ethr =  2.03E-09,  avg # of iterations =  2.6

     negative rho (up, down):  7.564E-05 0.000E+00

     total cpu time spent up to now is      365.8 secs

     total energy              =   -1375.52082307 Ry
     estimated scf accuracy    <       0.00000010 Ry

     iteration # 26     ecut=    70.00 Ry     beta= 0.70
     Davidson diagonalization with overlap
     ethr =  1.69E-10,  avg # of iterations =  3.4

     negative rho (up, down):  7.605E-05 0.000E+00

     total cpu time spent up to now is      372.6 secs

     total energy              =   -1375.52082309 Ry
     estimated scf accuracy    <       0.00000003 Ry

     iteration # 27     ecut=    70.00 Ry     beta= 0.70
     Davidson diagonalization with overlap
     ethr =  5.10E-11,  avg # of iterations =  2.8

     negative rho (up, down):  7.656E-05 0.000E+00

     total cpu time spent up to now is      378.9 secs

     total energy              =   -1375.52082310 Ry
     estimated scf accuracy    <       0.00000004 Ry

     iteration # 28     ecut=    70.00 Ry     beta= 0.70
     Davidson diagonalization with overlap
     ethr =  5.10E-11,  avg # of iterations =  1.0

     negative rho (up, down):  7.666E-05 0.000E+00

     total cpu time spent up to now is      384.7 secs

     total energy              =   -1375.52082310 Ry
     estimated scf accuracy    <          1.2E-09 Ry

     iteration # 29     ecut=    70.00 Ry     beta= 0.70
     Davidson diagonalization with overlap
     ethr =  1.99E-12,  avg # of iterations =  2.2

     negative rho (up, down):  7.668E-05 0.000E+00

     total cpu time spent up to now is      390.9 secs

     total energy              =   -1375.52082310 Ry
     estimated scf accuracy    <          1.2E-10 Ry

     iteration # 30     ecut=    70.00 Ry     beta= 0.70
     Davidson diagonalization with overlap
     ethr =  2.01E-13,  avg # of iterations =  2.8

     negative rho (up, down):  7.668E-05 0.000E+00

     total cpu time spent up to now is      397.2 secs

     total energy              =   -1375.52082310 Ry
     estimated scf accuracy    <          1.4E-11 Ry

     iteration # 31     ecut=    70.00 Ry     beta= 0.70
     Davidson diagonalization with overlap
     ethr =  1.00E-13,  avg # of iterations =  1.4

     negative rho (up, down):  7.668E-05 0.000E+00

     total cpu time spent up to now is      403.0 secs

     total energy              =   -1375.52082310 Ry
     estimated scf accuracy    <          1.8E-12 Ry

     iteration # 32     ecut=    70.00 Ry     beta= 0.70
     Davidson diagonalization with overlap
     ethr =  1.00E-13,  avg # of iterations =  1.0

     negative rho (up, down):  7.668E-05 0.000E+00

     total cpu time spent up to now is      408.8 secs

     End of self-consistent calculation

          k = 0.0000 0.0000 0.0000 ( 15945 PWs)   bands (ev):

   -69.6518 -69.6157 -36.3922 -35.9176 -35.9176 -35.8812 -35.8667 -35.8667
   -21.3212 -21.3145 -21.2867 -21.2867 -21.2738 -21.2738 -21.2570 -21.2540
   -21.2306 -21.2203 -21.2203 -21.2153 -21.2083 -21.2083 -14.7087  -9.1651
    -5.6019  -5.6019  -5.1251  -5.0980  -3.4631  -1.7004  -1.7004   0.3475
     0.3475   1.2127   1.2127   1.7268

          k = 0.0000 0.0923 0.0000 ( 15937 PWs)   bands (ev):

   -69.6484 -69.6133 -36.3826 -35.9724 -35.9323 -35.9075 -35.8744 -35.8733
   -21.3187 -21.3121 -21.2870 -21.2854 -21.2739 -21.2729 -21.2597 -21.2567
   -21.2293 -21.2218 -21.2210 -21.2143 -21.2098 -21.2084 -14.5945  -8.9475
    -6.0616  -5.5639  -5.0753  -4.8023  -3.3778  -2.0538  -1.5099  -0.2937
     0.1726   1.1836   1.4748   2.4960

          k = 0.0000 0.1845 0.0000 ( 15883 PWs)   bands (ev):

   -69.6387 -69.6069 -36.3625 -36.1040 -36.0110 -35.9702 -35.8934 -35.8718
   -21.3119 -21.3055 -21.2880 -21.2821 -21.2741 -21.2702 -21.2671 -21.2639
   -21.2267 -21.2247 -21.2227 -21.2138 -21.2114 -21.2085 -14.2901  -8.3689
    -6.7705  -5.4945  -4.9428  -4.4033  -3.3417  -2.6316  -1.0629  -0.9780
     0.1234   1.0594   1.8210   3.5009

          k = 0.0000 0.2768 0.0000 ( 15835 PWs)   bands (ev):

   -69.6252 -69.5983 -36.3768 -36.2677 -36.1118 -36.0190 -35.9233 -35.8752
   -21.3034 -21.2964 -21.2885 -21.2811 -21.2764 -21.2742 -21.2710 -21.2661
   -21.2312 -21.2251 -21.2209 -21.2179 -21.2085 -21.2077 -13.8959  -7.9017
    -7.1515  -5.4776  -4.7076  -4.0486  -3.8450  -2.4354  -1.5523  -0.2432
     0.6026   0.9158   1.9938   4.0546

          k = 0.0000 0.3691 0.0000 ( 15813 PWs)   bands (ev):

   -69.6112 -69.5903 -36.4872 -36.4089 -36.1231 -36.0658 -35.9545 -35.8859
   -21.2981 -21.2887 -21.2876 -21.2857 -21.2853 -21.2741 -21.2689 -21.2617
   -21.2361 -21.2275 -21.2249 -21.2130 -21.2084 -21.2042 -13.5335  -8.2658
    -6.7329  -5.5355  -4.6727  -4.1160  -3.4487  -1.9594  -1.6377   0.5751
     0.7507   1.5804   2.0709   3.9740

          k = 0.0000 0.4614 0.0000 ( 15860 PWs)   bands (ev):

   -69.6001 -69.5852 -36.5988 -36.5106 -36.0992 -36.0883 -35.9779 -35.9023
   -21.2976 -21.2955 -21.2928 -21.2816 -21.2794 -21.2737 -21.2658 -21.2580
   -21.2396 -21.2296 -21.2286 -21.2084 -21.2078 -21.2022 -13.2931  -8.6020
    -6.5287  -5.6121  -5.0072  -3.5330  -2.9802  -1.5864  -1.4032   0.6682
     1.2940   2.1512   2.7440   3.8610

          k =-0.0000-0.5536 0.0000 ( 15870 PWs)   bands (ev):

   -69.5957 -69.5837 -36.6410 -36.5485 -36.1113 -36.0688 -35.9865 -35.9121
   -21.2980 -21.2978 -21.2954 -21.2793 -21.2770 -21.2734 -21.2646 -21.2565
   -21.2408 -21.2304 -21.2300 -21.2084 -21.2056 -21.2017 -13.2112  -8.7199
    -6.5022  -5.6455  -5.1266  -3.2135  -2.8186  -1.3786  -1.3206   0.7099
     1.5055   2.3975   3.2832   3.8881

          k = 0.0799 0.1384 0.0000 ( 15907 PWs)   bands (ev):

   -69.6418 -69.6089 -36.3674 -36.0556 -36.0002 -35.9383 -35.8952 -35.8712
   -21.3140 -21.3076 -21.2875 -21.2833 -21.2739 -21.2712 -21.2648 -21.2617
   -21.2270 -21.2240 -21.2225 -21.2126 -21.2119 -21.2088 -14.3850  -8.5417
    -6.5625  -5.6105  -4.8987  -4.5259  -3.2508  -2.5998  -1.1915  -0.6407
    -0.2316   1.3705   1.6346   3.2780

          k = 0.0799 0.2307 0.0000 ( 15867 PWs)   bands (ev):

   -69.6302 -69.6014 -36.3601 -36.1958 -36.0972 -35.9900 -35.9295 -35.8709
   -21.3062 -21.2997 -21.2880 -21.2810 -21.2737 -21.2731 -21.2697 -21.2678
   -21.2287 -21.2254 -21.2217 -21.2160 -21.2093 -21.2090 -14.0350  -7.8861
    -7.1439  -5.7384  -4.5729  -4.1605  -3.4681  -2.8580  -1.3019  -0.6369
     0.0735   1.2890   2.0288   3.9505

          k = 0.0799 0.3230 0.0000 ( 15853 PWs)   bands (ev):

   -69.6164 -69.5931 -36.4247 -36.3442 -36.1382 -36.0502 -35.9647 -35.8776
   -21.2990 -21.2906 -21.2868 -21.2854 -21.2823 -21.2742 -21.2702 -21.2642
   -21.2336 -21.2282 -21.2213 -21.2154 -21.2096 -21.2055 -13.6563  -7.9303
    -6.9362  -5.8565  -4.2561  -4.0777  -3.6641  -2.4253  -1.6705  -0.2297
     0.8803   1.4659   2.2654   4.1798

          k = 0.0799 0.4152 0.0000 ( 15858 PWs)   bands (ev):

   -69.6038 -69.5867 -36.5412 -36.4596 -36.1265 -36.0894 -35.9921 -35.8923
   -21.2967 -21.2933 -21.2905 -21.2834 -21.2812 -21.2735 -21.2673 -21.2603
   -21.2379 -21.2304 -21.2258 -21.2103 -21.2093 -21.2028 -13.3563  -8.3425
    -6.5417  -5.9325  -4.5647  -3.6667  -3.1642  -1.9265  -1.6420  -0.0545
     1.5140   2.2019   2.5419   3.9374

          k = 0.0799 0.5075 0.0000 ( 15845 PWs)   bands (ev):

   -69.5957 -69.5836 -36.6164 -36.5258 -36.1399 -36.0801 -36.0010 -35.9090
   -21.2983 -21.2967 -21.2950 -21.2791 -21.2768 -21.2728 -21.2655 -21.2576
   -21.2404 -21.2311 -21.2291 -21.2098 -21.2060 -21.2017 -13.1972  -8.5703
    -6.4485  -5.9914  -4.7431  -3.2027  -2.8293  -1.5510  -1.4399  -0.0410
     2.1255   2.2618   3.3235   3.8086

          k = 0.1598 0.2768 0.0000 ( 15858 PWs)   bands (ev):

   -69.6183 -69.5942 -36.3981 -36.3056 -36.1551 -36.0266 -35.9952 -35.8735
   -21.2994 -21.2918 -21.2864 -21.2846 -21.2812 -21.2745 -21.2700 -21.2659
   -21.2315 -21.2300 -21.2185 -21.2168 -21.2110 -21.2060 -13.6996  -7.5598
    -7.1908  -6.1314  -4.0212  -3.8492  -3.6497  -2.9229  -1.6272  -0.6413
     0.9145   1.3936   2.5658   4.3684

          k = 0.1598 0.3691 0.0000 ( 15848 PWs)   bands (ev):

   -69.6058 -69.5876 -36.4800 -36.4079 -36.1733 -36.0781 -36.0357 -35.8847
   -21.2953 -21.2920 -21.2893 -21.2841 -21.2819 -21.2738 -21.2675 -21.2633
   -21.2358 -21.2324 -21.2222 -21.2132 -21.2105 -21.2033 -13.3842  -7.9181
    -6.6121  -6.3949  -3.9127  -3.5501  -3.3495  -2.5835  -1.9311  -0.5762
     1.6081   1.9298   3.1573   4.2362

          k = 0.1598 0.4614 0.0000 ( 15846 PWs)   bands (ev):

   -69.5957 -69.5836 -36.5554 -36.4729 -36.2062 -36.1199 -36.0223 -35.9038
   -21.2984 -21.2961 -21.2928 -21.2787 -21.2764 -21.2720 -21.2667 -21.2605
   -21.2395 -21.2328 -21.2265 -21.2134 -21.2067 -21.2018 -13.1690  -8.1870
    -6.5363  -6.3234  -4.0394  -3.1542  -2.8768  -2.0918  -1.8372  -0.6690
     1.9387   2.4344   3.5259   3.9756

          k = 0.1598 0.5536 0.0000 ( 15864 PWs)   bands (ev):

   -69.5916 -69.5827 -36.5845 -36.4948 -36.2244 -36.1343 -36.0057 -35.9169
   -21.3006 -21.2981 -21.2929 -21.2766 -21.2743 -21.2709 -21.2668 -21.2592
   -21.2409 -21.2320 -21.2289 -21.2135 -21.2050 -21.2014 -13.0941  -8.2858
    -6.5635  -6.2799  -4.0926  -2.9214  -2.7461  -1.7477  -1.7287  -0.7253
     2.0825   2.3910   3.3589   3.8665

          k = 0.2397 0.4152 0.0000 ( 15846 PWs)   bands (ev):

   -69.5957 -69.5836 -36.5125 -36.4418 -36.2470 -36.1530 -36.0285 -35.9016
   -21.2985 -21.2961 -21.2912 -21.2785 -21.2763 -21.2725 -21.2654 -21.2632
   -21.2389 -21.2338 -21.2244 -21.2159 -21.2070 -21.2018 -13.1548  -7.8898
    -6.8781  -6.2558  -3.3948  -3.1152  -2.9338  -2.6930  -2.0974  -0.8376
     1.8445   2.4403   3.4880   4.2222

          k = 0.2397 0.5075 0.0000 ( 15834 PWs)   bands (ev):

   -69.5888 -69.5825 -36.5214 -36.4395 -36.3142 -36.2206 -35.9931 -35.9253
   -21.3019 -21.2995 -21.2898 -21.2751 -21.2727 -21.2701 -21.2665 -21.2622
   -21.2412 -21.2326 -21.2275 -21.2174 -21.2047 -21.2013 -13.0257  -7.8913
    -7.0775  -6.1072  -3.2641  -2.8081  -2.7106  -2.2865  -2.0329  -1.0050
     1.6808   2.1369   3.3057   3.8178

          k = 0.3196 0.5536 0.0000 ( 15774 PWs)   bands (ev):

   -69.5847 -69.5836 -36.4705 -36.3953 -36.3895 -36.2955 -35.9577 -35.9550
   -21.3032 -21.3007 -21.2882 -21.2739 -21.2714 -21.2689 -21.2658 -21.2640
   -21.2421 -21.2314 -21.2285 -21.2194 -21.2040 -21.2012 -12.9718  -7.5396
    -7.5053  -6.0055  -2.8150  -2.7775  -2.4887  -2.2956  -2.2723  -1.1068
     1.4898   1.5804   3.5729   3.5885

     the Fermi energy is    -1.9205 ev

!    total energy              =   -1375.52082310 Ry
     estimated scf accuracy    <          7.3E-14 Ry
     smearing contrib. (-TS)   =      -0.00001079 Ry
     internal energy E=F+TS    =   -1375.52081231 Ry

     The total energy is F=E-TS. E is the sum of the following terms:
     one-electron contribution =  -11113.52813054 Ry
     hartree contribution      =    5582.62877748 Ry
     xc contribution           =    -140.10989617 Ry
     ewald contribution        =    4295.48843692 Ry

     convergence has been achieved in  32 iterations

     negative rho (up, down):  7.668E-05 0.000E+00

     Forces acting on atoms (cartesian axes, Ry/au):

     atom    1 type  2   force =     0.00000000    0.00000000    0.00456831
     atom    2 type  1   force =    -0.00000000   -0.00000000   -0.00913595
     atom    3 type  1   force =    -0.00000000   -0.00000000   -0.00127966
     atom    4 type  3   force =     0.00000000    0.00000000    0.00252666
     atom    5 type  3   force =     0.00000000    0.00000000    0.00332065

     Total force =     0.010125     Total SCF correction =     0.000003


     Computing stress (Cartesian axis) and pressure


     negative rho (up, down):  7.668E-05 0.000E+00
          total   stress  (Ry/bohr**3)                   (kbar)     P=        5.34
   0.00005220  -0.00000000   0.00000000            7.68       -0.00        0.00
  -0.00000000   0.00005220   0.00000000           -0.00        7.68        0.00
   0.00000000   0.00000000   0.00000457            0.00        0.00        0.67

     Energy error            =      1.3E-03 Ry
     Gradient error          =      9.1E-03 Ry/Bohr
     Cell gradient error     =      7.7E+00 kbar

     number of scf cycles    =   2
     number of bfgs steps    =   1

     enthalpy           old  =   -1375.5195395112 Ry
     enthalpy           new  =   -1375.5208230993 Ry

     CASE: enthalpy          _new < enthalpy          _old

     new trust radius        =       0.0180186143 bohr
     new conv_thr            =            9.1E-14 Ry

     new unit-cell volume =   1617.21442 a.u.^3 (   239.64645 Ang^3 )
     density =      2.60470 g/cm^3

CELL_PARAMETERS (alat=  5.55000000)
   1.045150933  -0.000000000   0.000000000
  -0.522575466   0.905127258   0.000000000
   0.000000000   0.000000000  10.000000000

ATOMIC_POSITIONS (crystal)
C             0.0000000000        0.0000000000        0.0000000000    0   0   0
Ta            0.6666666670        0.3333333330       -0.0424511593
Ta            0.3333333330        0.6666666670        0.0428151592
H             0.3333333330        0.6666666670        0.1036651186
H             0.6666666670        0.3333333330       -0.1032527755



     Writing output data file /scratch/as3359/Ta2CH2-VCrelax/Ta.save/
     NEW-OLD atomic charge density approx. for the potential

     negative rho (up, down):  8.406E-05 0.000E+00
     extrapolated charge   60.26853, renormalised to   60.00000

     total cpu time spent up to now is      457.3 secs

     Self-consistent Calculation

     iteration #  1     ecut=    70.00 Ry     beta= 0.70
     Davidson diagonalization with overlap
     c_bands:  2 eigenvalues not converged
     c_bands:  2 eigenvalues not converged
     c_bands:  1 eigenvalues not converged
     c_bands:  3 eigenvalues not converged
     c_bands:  4 eigenvalues not converged
     c_bands:  4 eigenvalues not converged
     c_bands:  4 eigenvalues not converged
     c_bands:  2 eigenvalues not converged
     c_bands:  2 eigenvalues not converged
     c_bands:  4 eigenvalues not converged
     c_bands:  5 eigenvalues not converged
     c_bands:  5 eigenvalues not converged
     ethr =  1.00E-06,  avg # of iterations = 22.5

     total cpu time spent up to now is      475.1 secs

     total energy              =   -1222.68084214 Ry
     estimated scf accuracy    <     164.35413719 Ry

     iteration #  2     ecut=    70.00 Ry     beta= 0.70
     Davidson diagonalization with overlap
     ethr =  1.00E-02,  avg # of iterations = 13.2

     total cpu time spent up to now is      485.9 secs

     total energy              =   -1395.61306765 Ry
     estimated scf accuracy    <     147.91015732 Ry

     iteration #  3     ecut=    70.00 Ry     beta= 0.70
     Davidson diagonalization with overlap
     ethr =  1.00E-02,  avg # of iterations =  8.1

     total cpu time spent up to now is      494.8 secs

     total energy              =   -1393.47853869 Ry
     estimated scf accuracy    <      43.40568242 Ry

     iteration #  4     ecut=    70.00 Ry     beta= 0.70
     Davidson diagonalization with overlap
     ethr =  1.00E-02,  avg # of iterations =  6.3

     total cpu time spent up to now is      501.8 secs

     total energy              =   -1392.14133318 Ry
     estimated scf accuracy    <      49.31019392 Ry

     iteration #  5     ecut=    70.00 Ry     beta= 0.70
     Davidson diagonalization with overlap
     ethr =  1.00E-02,  avg # of iterations =  2.2

     total cpu time spent up to now is      507.8 secs

     total energy              =   -1381.64943643 Ry
     estimated scf accuracy    <      30.13362981 Ry

     iteration #  6     ecut=    70.00 Ry     beta= 0.70
     Davidson diagonalization with overlap
     ethr =  1.00E-02,  avg # of iterations =  5.6

     total cpu time spent up to now is      514.5 secs

     total energy              =   -1384.21208625 Ry
     estimated scf accuracy    <       8.25761515 Ry

     iteration #  7     ecut=    70.00 Ry     beta= 0.70
     Davidson diagonalization with overlap
     ethr =  1.00E-02,  avg # of iterations =  1.5

     total cpu time spent up to now is      520.4 secs

     total energy              =   -1383.29535029 Ry
     estimated scf accuracy    <      13.54521027 Ry

     iteration #  8     ecut=    70.00 Ry     beta= 0.70
     Davidson diagonalization with overlap
     ethr =  1.00E-02,  avg # of iterations =  1.0

     total cpu time spent up to now is      526.2 secs

     total energy              =   -1382.86893538 Ry
     estimated scf accuracy    <      10.85005719 Ry

     iteration #  9     ecut=    70.00 Ry     beta= 0.70
     Davidson diagonalization with overlap
     ethr =  1.00E-02,  avg # of iterations =  1.0

     total cpu time spent up to now is      532.1 secs

     total energy              =   -1381.50415310 Ry
     estimated scf accuracy    <      10.22992482 Ry

     iteration # 10     ecut=    70.00 Ry     beta= 0.70
     Davidson diagonalization with overlap
     ethr =  1.00E-02,  avg # of iterations =  1.0

     negative rho (up, down):  4.043E-04 0.000E+00

     total cpu time spent up to now is      537.9 secs

     total energy              =   -1374.25266819 Ry
     estimated scf accuracy    <       8.09314839 Ry

     iteration # 11     ecut=    70.00 Ry     beta= 0.70
     Davidson diagonalization with overlap
     ethr =  1.00E-02,  avg # of iterations =  9.1

     total cpu time spent up to now is      545.9 secs

     total energy              =   -1369.51301912 Ry
     estimated scf accuracy    <      65.21928626 Ry

     iteration # 12     ecut=    70.00 Ry     beta= 0.70
     Davidson diagonalization with overlap
     ethr =  1.00E-02,  avg # of iterations =  6.5

     total cpu time spent up to now is      553.0 secs

     total energy              =   -1375.55946953 Ry
     estimated scf accuracy    <       1.12547693 Ry

     iteration # 13     ecut=    70.00 Ry     beta= 0.70
     Davidson diagonalization with overlap
     ethr =  1.88E-03,  avg # of iterations =  6.5

     total cpu time spent up to now is      559.8 secs

     total energy              =   -1375.52024394 Ry
     estimated scf accuracy    <       0.46418364 Ry

     iteration # 14     ecut=    70.00 Ry     beta= 0.70
     Davidson diagonalization with overlap
     ethr =  7.74E-04,  avg # of iterations =  6.3

     total cpu time spent up to now is      566.4 secs

     total energy              =   -1375.52274992 Ry
     estimated scf accuracy    <       0.14747065 Ry

     iteration # 15     ecut=    70.00 Ry     beta= 0.70
     Davidson diagonalization with overlap
     c_bands:  1 eigenvalues not converged
     ethr =  2.46E-04,  avg # of iterations =  8.9

     total cpu time spent up to now is      573.9 secs

     total energy              =   -1375.54508385 Ry
     estimated scf accuracy    <       0.33173916 Ry

     iteration # 16     ecut=    70.00 Ry     beta= 0.70
     Davidson diagonalization with overlap
     ethr =  2.46E-04,  avg # of iterations =  3.2

     total cpu time spent up to now is      580.3 secs

     total energy              =   -1375.54932753 Ry
     estimated scf accuracy    <       0.42888524 Ry

     iteration # 17     ecut=    70.00 Ry     beta= 0.70
     Davidson diagonalization with overlap
     ethr =  2.46E-04,  avg # of iterations =  2.1

     total cpu time spent up to now is      586.4 secs

     total energy              =   -1375.60175754 Ry
     estimated scf accuracy    <       0.13123588 Ry

     iteration # 18     ecut=    70.00 Ry     beta= 0.70
     Davidson diagonalization with overlap
     ethr =  2.19E-04,  avg # of iterations =  1.0

     total cpu time spent up to now is      592.3 secs

     total energy              =   -1375.59245523 Ry
     estimated scf accuracy    <       0.14392612 Ry

     iteration # 19     ecut=    70.00 Ry     beta= 0.70
     Davidson diagonalization with overlap
     ethr =  2.19E-04,  avg # of iterations =  1.0

     total cpu time spent up to now is      598.1 secs

     total energy              =   -1375.59863448 Ry
     estimated scf accuracy    <       0.10104593 Ry

     iteration # 20     ecut=    70.00 Ry     beta= 0.70
     Davidson diagonalization with overlap
     ethr =  1.68E-04,  avg # of iterations =  1.0

     negative rho (up, down):  3.069E-04 0.000E+00

     total cpu time spent up to now is      603.9 secs

     total energy              =   -1375.51877964 Ry
     estimated scf accuracy    <       0.11247135 Ry

     iteration # 21     ecut=    70.00 Ry     beta= 0.70
     Davidson diagonalization with overlap
     ethr =  1.68E-04,  avg # of iterations =  2.6

     negative rho (up, down):  6.312E-07 0.000E+00

     total cpu time spent up to now is      610.1 secs

     total energy              =   -1375.50428560 Ry
     estimated scf accuracy    <       0.19363703 Ry

     iteration # 22     ecut=    70.00 Ry     beta= 0.70
     Davidson diagonalization with overlap
     ethr =  1.68E-04,  avg # of iterations =  2.2

     negative rho (up, down):  3.667E-04 0.000E+00

     total cpu time spent up to now is      616.2 secs

     total energy              =   -1375.51999065 Ry
     estimated scf accuracy    <       0.00770351 Ry

     iteration # 23     ecut=    70.00 Ry     beta= 0.70
     Davidson diagonalization with overlap
     ethr =  1.28E-05,  avg # of iterations =  5.9

     negative rho (up, down):  3.120E-04 0.000E+00

     total cpu time spent up to now is      623.2 secs

     total energy              =   -1375.52102198 Ry
     estimated scf accuracy    <       0.00397400 Ry

     iteration # 24     ecut=    70.00 Ry     beta= 0.70
     Davidson diagonalization with overlap
     ethr =  6.62E-06,  avg # of iterations =  1.8

     negative rho (up, down):  1.236E-04 0.000E+00

     total cpu time spent up to now is      629.1 secs

     total energy              =   -1375.52115670 Ry
     estimated scf accuracy    <       0.00015419 Ry

     iteration # 25     ecut=    70.00 Ry     beta= 0.70
     Davidson diagonalization with overlap
     ethr =  2.57E-07,  avg # of iterations =  3.6

     negative rho (up, down):  8.919E-05 0.000E+00

     total cpu time spent up to now is      635.5 secs

     total energy              =   -1375.52118145 Ry
     estimated scf accuracy    <       0.00006528 Ry

     iteration # 26     ecut=    70.00 Ry     beta= 0.70
     Davidson diagonalization with overlap
     ethr =  1.09E-07,  avg # of iterations =  1.5

     negative rho (up, down):  9.601E-05 0.000E+00

     total cpu time spent up to now is      641.3 secs

     total energy              =   -1375.52118349 Ry
     estimated scf accuracy    <       0.00002692 Ry

     iteration # 27     ecut=    70.00 Ry     beta= 0.70
     Davidson diagonalization with overlap
     ethr =  4.49E-08,  avg # of iterations =  1.9

     negative rho (up, down):  8.027E-05 0.000E+00

     total cpu time spent up to now is      647.3 secs

     total energy              =   -1375.52118534 Ry
     estimated scf accuracy    <       0.00000029 Ry

     iteration # 28     ecut=    70.00 Ry     beta= 0.70
     Davidson diagonalization with overlap
     ethr =  4.86E-10,  avg # of iterations =  3.9

     negative rho (up, down):  8.088E-05 0.000E+00

     total cpu time spent up to now is      654.3 secs

     total energy              =   -1375.52118542 Ry
     estimated scf accuracy    <       0.00000015 Ry

     iteration # 29     ecut=    70.00 Ry     beta= 0.70
     Davidson diagonalization with overlap
     ethr =  2.56E-10,  avg # of iterations =  2.1

     negative rho (up, down):  8.202E-05 0.000E+00

     total cpu time spent up to now is      660.4 secs

     total energy              =   -1375.52118544 Ry
     estimated scf accuracy    <       0.00000001 Ry

     iteration # 30     ecut=    70.00 Ry     beta= 0.70
     Davidson diagonalization with overlap
     ethr =  1.84E-11,  avg # of iterations =  3.9

     negative rho (up, down):  8.109E-05 0.000E+00

     total cpu time spent up to now is      667.2 secs

     total energy              =   -1375.52118544 Ry
     estimated scf accuracy    <          6.0E-09 Ry

     iteration # 31     ecut=    70.00 Ry     beta= 0.70
     Davidson diagonalization with overlap
     ethr =  9.93E-12,  avg # of iterations =  2.0

     negative rho (up, down):  8.107E-05 0.000E+00

     total cpu time spent up to now is      673.3 secs

     total energy              =   -1375.52118544 Ry
     estimated scf accuracy    <          1.7E-10 Ry

     iteration # 32     ecut=    70.00 Ry     beta= 0.70
     Davidson diagonalization with overlap
     ethr =  2.78E-13,  avg # of iterations =  3.9

     negative rho (up, down):  8.108E-05 0.000E+00

     total cpu time spent up to now is      680.0 secs

     total energy              =   -1375.52118544 Ry
     estimated scf accuracy    <          3.5E-11 Ry

     iteration # 33     ecut=    70.00 Ry     beta= 0.70
     Davidson diagonalization with overlap
     ethr =  1.00E-13,  avg # of iterations =  2.1

     negative rho (up, down):  8.108E-05 0.000E+00

     total cpu time spent up to now is      686.2 secs

     total energy              =   -1375.52118544 Ry
     estimated scf accuracy    <          6.6E-12 Ry

     iteration # 34     ecut=    70.00 Ry     beta= 0.70
     Davidson diagonalization with overlap
     ethr =  1.00E-13,  avg # of iterations =  1.0

     negative rho (up, down):  8.108E-05 0.000E+00

     total cpu time spent up to now is      692.0 secs

     total energy              =   -1375.52118544 Ry
     estimated scf accuracy    <          6.1E-13 Ry

     iteration # 35     ecut=    70.00 Ry     beta= 0.70
     Davidson diagonalization with overlap
     ethr =  1.00E-13,  avg # of iterations =  1.0

     negative rho (up, down):  8.109E-05 0.000E+00

     total cpu time spent up to now is      697.8 secs

     total energy              =   -1375.52118544 Ry
     estimated scf accuracy    <          2.0E-13 Ry

     iteration # 36     ecut=    70.00 Ry     beta= 0.70
     Davidson diagonalization with overlap
     ethr =  1.00E-13,  avg # of iterations =  1.0

     negative rho (up, down):  8.109E-05 0.000E+00

     total cpu time spent up to now is      703.5 secs

     End of self-consistent calculation

          k = 0.0000 0.0000 0.0000 ( 15945 PWs)   bands (ev):

   -69.6746 -69.6392 -36.4008 -35.9424 -35.9424 -35.9059 -35.8931 -35.8931
   -21.3487 -21.3384 -21.3139 -21.3139 -21.2989 -21.2989 -21.2873 -21.2784
   -21.2574 -21.2481 -21.2481 -21.2400 -21.2335 -21.2335 -14.6858  -9.1346
    -5.5682  -5.5682  -5.1294  -5.1181  -3.4784  -1.7003  -1.7003   0.3265
     0.3265   1.1748   1.1748   1.6861

          k = 0.0000 0.0921 0.0000 ( 15937 PWs)   bands (ev):

   -69.6712 -69.6368 -36.3915 -35.9956 -35.9566 -35.9329 -35.8997 -35.8994
   -21.3463 -21.3360 -21.3142 -21.3127 -21.2990 -21.2980 -21.2900 -21.2810
   -21.2561 -21.2496 -21.2487 -21.2390 -21.2349 -21.2336 -14.5726  -8.9188
    -6.0352  -5.5312  -5.0856  -4.8102  -3.3919  -2.0516  -1.5111  -0.3106
     0.1518   1.1463   1.4350   2.4505

          k = 0.0000 0.1841 0.0000 ( 15883 PWs)   bands (ev):

   -69.6620 -69.6305 -36.3721 -36.1238 -36.0339 -35.9935 -35.9194 -35.8969
   -21.3397 -21.3296 -21.3150 -21.3096 -21.2993 -21.2973 -21.2951 -21.2881
   -21.2540 -21.2520 -21.2502 -21.2388 -21.2361 -21.2338 -14.2704  -8.3440
    -6.7435  -5.4641  -4.9542  -4.4147  -3.3460  -2.6322  -1.0741  -0.9825
     0.1018   1.0224   1.7770   3.4571

          k = 0.0000 0.2762 0.0000 ( 15835 PWs)   bands (ev):

   -69.6490 -69.6221 -36.3870 -36.2834 -36.1317 -36.0410 -35.9487 -35.9000
   -21.3311 -21.3213 -21.3151 -21.3095 -21.3036 -21.2995 -21.2973 -21.2907
   -21.2587 -21.2524 -21.2474 -21.2436 -21.2340 -21.2323 -13.8776  -7.8732
    -7.1323  -5.4497  -4.7202  -4.0534  -3.8474  -2.4452  -1.5630  -0.2529
     0.5757   0.8785   1.9475   4.0135

          k = 0.0000 0.3683 0.0000 ( 15813 PWs)   bands (ev):

   -69.6356 -69.6141 -36.4966 -36.4212 -36.1412 -36.0866 -35.9793 -35.9103
   -21.3249 -21.3181 -21.3161 -21.3097 -21.3096 -21.2994 -21.2972 -21.2864
   -21.2636 -21.2547 -21.2496 -21.2409 -21.2341 -21.2285 -13.5142  -8.2362
    -6.7177  -5.5091  -4.6589  -4.1330  -3.4728  -1.9716  -1.6532   0.5564
     0.7134   1.5451   2.0248   3.9241

          k = 0.0000 0.4603 0.0000 ( 15860 PWs)   bands (ev):

   -69.6252 -69.6088 -36.6059 -36.5209 -36.1192 -36.1068 -36.0022 -35.9261
   -21.3249 -21.3239 -21.3163 -21.3111 -21.3036 -21.2990 -21.2943 -21.2828
   -21.2671 -21.2566 -21.2531 -21.2366 -21.2341 -21.2259 -13.2712  -8.5748
    -6.5123  -5.5863  -4.9862  -3.5627  -3.0136  -1.6007  -1.4219   0.6310
     1.2618   2.1116   2.6967   3.8213

          k =-0.0000-0.5524 0.0000 ( 15870 PWs)   bands (ev):

   -69.6212 -69.6072 -36.6472 -36.5580 -36.1310 -36.0877 -36.0106 -35.9356
   -21.3274 -21.3241 -21.3187 -21.3089 -21.3015 -21.2985 -21.2932 -21.2814
   -21.2683 -21.2573 -21.2544 -21.2349 -21.2341 -21.2249 -13.1878  -8.6939
    -6.4851  -5.6199  -5.1043  -3.2495  -2.8551  -1.3951  -1.3378   0.6720
     1.4659   2.3605   3.2303   3.8553

          k = 0.0797 0.1381 0.0000 ( 15907 PWs)   bands (ev):

   -69.6649 -69.6325 -36.3767 -36.0766 -36.0230 -35.9629 -35.9210 -35.8963
   -21.3418 -21.3316 -21.3147 -21.3107 -21.2991 -21.2965 -21.2947 -21.2859
   -21.2539 -21.2517 -21.2500 -21.2374 -21.2369 -21.2340 -14.3647  -8.5159
    -6.5354  -5.5834  -4.9058  -4.5362  -3.2624  -2.5944  -1.1947  -0.6549
    -0.2507   1.3304   1.5946   3.2291

          k = 0.0797 0.2302 0.0000 ( 15867 PWs)   bands (ev):

   -69.6538 -69.6251 -36.3701 -36.2134 -36.1174 -36.0131 -35.9546 -35.8959
   -21.3341 -21.3241 -21.3149 -21.3086 -21.3024 -21.2989 -21.2952 -21.2920
   -21.2564 -21.2524 -21.2490 -21.2412 -21.2347 -21.2336 -14.0166  -7.8634
    -7.1177  -5.7143  -4.5815  -4.1748  -3.4622  -2.8638  -1.3099  -0.6491
     0.0521   1.2504   1.9846   3.9058

          k = 0.0797 0.3222 0.0000 ( 15853 PWs)   bands (ev):

   -69.6406 -69.6170 -36.4348 -36.3581 -36.1563 -36.0716 -35.9890 -35.9023
   -21.3263 -21.3175 -21.3148 -21.3122 -21.3067 -21.3001 -21.2976 -21.2888
   -21.2612 -21.2549 -21.2466 -21.2429 -21.2351 -21.2299 -13.6380  -7.9015
    -6.9204  -5.8325  -4.2573  -4.0788  -3.6834  -2.4339  -1.6810  -0.2497
     0.8524   1.4292   2.2186   4.1273

          k = 0.0797 0.4143 0.0000 ( 15858 PWs)   bands (ev):

   -69.6286 -69.6104 -36.5495 -36.4710 -36.1448 -36.1090 -36.0158 -35.9165
   -21.3236 -21.3223 -21.3142 -21.3126 -21.3054 -21.2991 -21.2956 -21.2850
   -21.2655 -21.2570 -21.2508 -21.2382 -21.2353 -21.2268 -13.3359  -8.3156
    -6.5261  -5.9084  -4.5456  -3.6914  -3.1937  -1.9368  -1.6579  -0.0810
     1.4826   2.1564   2.4960   3.8935

          k = 0.0797 0.5064 0.0000 ( 15845 PWs)   bands (ev):

   -69.6212 -69.6072 -36.6232 -36.5359 -36.1587 -36.0992 -36.0244 -35.9327
   -21.3276 -21.3228 -21.3187 -21.3088 -21.3011 -21.2981 -21.2940 -21.2825
   -21.2679 -21.2581 -21.2535 -21.2355 -21.2351 -21.2251 -13.1746  -8.5453
    -6.4318  -5.9673  -4.7218  -3.2362  -2.8659  -1.5642  -1.4570  -0.0689
     2.0840   2.2198   3.2752   3.7709

          k = 0.1595 0.2762 0.0000 ( 15858 PWs)   bands (ev):

   -69.6424 -69.6180 -36.4084 -36.3207 -36.1726 -36.0489 -36.0186 -35.8984
   -21.3269 -21.3177 -21.3137 -21.3126 -21.3062 -21.3007 -21.2969 -21.2903
   -21.2596 -21.2560 -21.2449 -21.2434 -21.2365 -21.2305 -13.6817  -7.5335
    -7.1726  -6.1079  -4.0341  -3.8668  -3.6402  -2.9296  -1.6327  -0.6613
     0.8871   1.3570   2.5207   4.3152

          k = 0.1595 0.3683 0.0000 ( 15848 PWs)   bands (ev):

   -69.6305 -69.6114 -36.4895 -36.4207 -36.1902 -36.0988 -36.0578 -35.9092
   -21.3227 -21.3207 -21.3135 -21.3126 -21.3063 -21.3003 -21.2951 -21.2877
   -21.2635 -21.2587 -21.2476 -21.2397 -21.2376 -21.2274 -13.3652  -7.8939
    -6.5947  -6.3727  -3.8997  -3.5715  -3.3748  -2.5885  -1.9392  -0.5993
     1.5738   1.8903   3.1106   4.1824

          k = 0.1595 0.4603 0.0000 ( 15846 PWs)   bands (ev):

   -69.6212 -69.6071 -36.5635 -36.4841 -36.2230 -36.1395 -36.0439 -35.9277
   -21.3277 -21.3204 -21.3184 -21.3084 -21.3006 -21.2983 -21.2942 -21.2851
   -21.2668 -21.2597 -21.2512 -21.2388 -21.2356 -21.2253 -13.1480  -8.1645
    -6.5130  -6.3080  -4.0235  -3.1830  -2.9128  -2.0963  -1.8513  -0.6904
     1.9037   2.3879   3.4942   3.9145

          k = 0.1595 0.5524 0.0000 ( 15864 PWs)   bands (ev):

   -69.6175 -69.6059 -36.5921 -36.5055 -36.2410 -36.1536 -36.0275 -35.9404
   -21.3299 -21.3216 -21.3192 -21.3065 -21.2985 -21.2971 -21.2943 -21.2841
   -21.2681 -21.2598 -21.2529 -21.2390 -21.2344 -21.2246 -13.0720  -8.2640
    -6.5408  -6.2642  -4.0755  -2.9551  -2.7847  -1.7550  -1.7449  -0.7453
     2.0495   2.3457   3.3267   3.8186

          k = 0.2392 0.4143 0.0000 ( 15846 PWs)   bands (ev):

   -69.6212 -69.6071 -36.5216 -36.4538 -36.2626 -36.1726 -36.0495 -35.9256
   -21.3278 -21.3197 -21.3175 -21.3082 -21.3006 -21.2993 -21.2929 -21.2872
   -21.2661 -21.2607 -21.2493 -21.2412 -21.2359 -21.2254 -13.1346  -7.8694
    -6.8545  -6.2411  -3.3891  -3.1360  -2.9665  -2.6939  -2.1090  -0.8580
     1.8094   2.3953   3.4571   4.1719

          k = 0.2392 0.5064 0.0000 ( 15834 PWs)   bands (ev):

   -69.6152 -69.6052 -36.5304 -36.4515 -36.3284 -36.2385 -36.0149 -35.9485
   -21.3312 -21.3227 -21.3164 -21.3051 -21.2985 -21.2966 -21.2923 -21.2869
   -21.2681 -21.2608 -21.2513 -21.2428 -21.2341 -21.2244 -13.0044  -7.8715
    -7.0560  -6.0933  -3.2576  -2.8352  -2.7454  -2.2929  -2.0456  -1.0220
     1.6511   2.0998   3.2677   3.7725

          k = 0.3189 0.5524 0.0000 ( 15774 PWs)   bands (ev):

   -69.6128 -69.6048 -36.4808 -36.4057 -36.4040 -36.3121 -35.9818 -35.9760
   -21.3325 -21.3239 -21.3148 -21.3039 -21.2987 -21.2951 -21.2898 -21.2893
   -21.2687 -21.2609 -21.2511 -21.2448 -21.2336 -21.2241 -12.9505  -7.5099
    -7.4953  -5.9928  -2.8214  -2.8170  -2.4851  -2.3039  -2.2996  -1.1223
     1.4836   1.5290   3.5359   3.5420

     the Fermi energy is    -1.9298 ev

!    total energy              =   -1375.52118544 Ry
     estimated scf accuracy    <          3.2E-14 Ry
     smearing contrib. (-TS)   =      -0.00001318 Ry
     internal energy E=F+TS    =   -1375.52117226 Ry

     The total energy is F=E-TS. E is the sum of the following terms:
     one-electron contribution =  -11060.28268799 Ry
     hartree contribution      =    5555.95773388 Ry
     xc contribution           =    -140.09039293 Ry
     ewald contribution        =    4268.89417478 Ry

     convergence has been achieved in  36 iterations

     negative rho (up, down):  8.109E-05 0.000E+00

     Forces acting on atoms (cartesian axes, Ry/au):

     atom    1 type  2   force =     0.00000000    0.00000000    0.00238502
     atom    2 type  1   force =     0.00000000    0.00000000    0.00377204
     atom    3 type  1   force =     0.00000000    0.00000000   -0.00542762
     atom    4 type  3   force =     0.00000000    0.00000000    0.00117720
     atom    5 type  3   force =     0.00000000    0.00000000   -0.00190665

     Total force =     0.006979     Total SCF correction =     0.000003


     Computing stress (Cartesian axis) and pressure


     negative rho (up, down):  8.109E-05 0.000E+00
          total   stress  (Ry/bohr**3)                   (kbar)     P=        2.73
   0.00003110  -0.00000000   0.00000000            4.57       -0.00        0.00
  -0.00000000   0.00003110   0.00000000           -0.00        4.57        0.00
   0.00000000   0.00000000  -0.00000660            0.00        0.00       -0.97

     Energy error            =      3.6E-04 Ry
     Gradient error          =      5.4E-03 Ry/Bohr
     Cell gradient error     =      4.6E+00 kbar

     number of scf cycles    =   3
     number of bfgs steps    =   2

     enthalpy           old  =   -1375.5208230993 Ry
     enthalpy           new  =   -1375.5211854389 Ry

     CASE: enthalpy          _new < enthalpy          _old

     new trust radius        =       0.0155434670 bohr
     new conv_thr            =            3.6E-14 Ry

     new unit-cell volume =   1623.47121 a.u.^3 (   240.57361 Ang^3 )
     density =      2.59466 g/cm^3

CELL_PARAMETERS (alat=  5.55000000)
   1.047170755  -0.000000000   0.000000000
  -0.523585377   0.906876475   0.000000000
   0.000000000   0.000000000  10.000000000

ATOMIC_POSITIONS (crystal)
C             0.0000000000        0.0000000000        0.0000000000    0   0   0
Ta            0.6666666670        0.3333333330       -0.0425111859
Ta            0.3333333330        0.6666666670        0.0427020238
H             0.3333333330        0.6666666670        0.1037137734
H             0.6666666670        0.3333333330       -0.1032416150



     Writing output data file /scratch/as3359/Ta2CH2-VCrelax/Ta.save/
     NEW-OLD atomic charge density approx. for the potential

     negative rho (up, down):  8.624E-05 0.000E+00
     extrapolated charge   60.23123, renormalised to   60.00000

     total cpu time spent up to now is      752.0 secs

     Self-consistent Calculation

     iteration #  1     ecut=    70.00 Ry     beta= 0.70
     Davidson diagonalization with overlap
     c_bands:  1 eigenvalues not converged
     c_bands:  2 eigenvalues not converged
     c_bands:  1 eigenvalues not converged
     c_bands:  1 eigenvalues not converged
     c_bands:  4 eigenvalues not converged
     c_bands:  3 eigenvalues not converged
     c_bands:  2 eigenvalues not converged
     c_bands:  3 eigenvalues not converged
     c_bands:  3 eigenvalues not converged
     c_bands:  4 eigenvalues not converged
     c_bands:  4 eigenvalues not converged
     c_bands:  5 eigenvalues not converged
     c_bands:  3 eigenvalues not converged
     c_bands:  4 eigenvalues not converged
     c_bands:  4 eigenvalues not converged
     ethr =  1.00E-06,  avg # of iterations = 20.0

     total cpu time spent up to now is      767.3 secs

     total energy              =   -1315.22094048 Ry
     estimated scf accuracy    <      64.30088692 Ry

     iteration #  2     ecut=    70.00 Ry     beta= 0.70
     Davidson diagonalization with overlap
     ethr =  1.00E-02,  avg # of iterations = 10.4

     total cpu time spent up to now is      776.6 secs

     total energy              =   -1382.36022901 Ry
     estimated scf accuracy    <      67.57991934 Ry

     iteration #  3     ecut=    70.00 Ry     beta= 0.70
     Davidson diagonalization with overlap
     ethr =  1.00E-02,  avg # of iterations =  6.2

     total cpu time spent up to now is      784.5 secs

     total energy              =   -1381.95344489 Ry
     estimated scf accuracy    <      18.69854657 Ry

     iteration #  4     ecut=    70.00 Ry     beta= 0.70
     Davidson diagonalization with overlap
     ethr =  1.00E-02,  avg # of iterations =  5.0

     total cpu time spent up to now is      791.0 secs

     total energy              =   -1381.29694849 Ry
     estimated scf accuracy    <      33.92765853 Ry

     iteration #  5     ecut=    70.00 Ry     beta= 0.70
     Davidson diagonalization with overlap
     ethr =  1.00E-02,  avg # of iterations =  2.1

     total cpu time spent up to now is      796.9 secs

     total energy              =   -1377.67341719 Ry
     estimated scf accuracy    <      15.00870572 Ry

     iteration #  6     ecut=    70.00 Ry     beta= 0.70
     Davidson diagonalization with overlap
     ethr =  1.00E-02,  avg # of iterations =  3.2

     total cpu time spent up to now is      803.1 secs

     total energy              =   -1378.82596661 Ry
     estimated scf accuracy    <       3.73790207 Ry

     iteration #  7     ecut=    70.00 Ry     beta= 0.70
     Davidson diagonalization with overlap
     ethr =  6.23E-03,  avg # of iterations =  1.2

     total cpu time spent up to now is      808.9 secs

     total energy              =   -1378.39419311 Ry
     estimated scf accuracy    <       4.94071315 Ry

     iteration #  8     ecut=    70.00 Ry     beta= 0.70
     Davidson diagonalization with overlap
     ethr =  6.23E-03,  avg # of iterations =  1.0

     total cpu time spent up to now is      814.8 secs

     total energy              =   -1377.76198392 Ry
     estimated scf accuracy    <       3.77792996 Ry

     iteration #  9     ecut=    70.00 Ry     beta= 0.70
     Davidson diagonalization with overlap
     ethr =  6.23E-03,  avg # of iterations =  1.0

     total cpu time spent up to now is      820.6 secs

     total energy              =   -1377.05594762 Ry
     estimated scf accuracy    <       2.91975130 Ry

     iteration # 10     ecut=    70.00 Ry     beta= 0.70
     Davidson diagonalization with overlap
     ethr =  4.87E-03,  avg # of iterations =  1.0

     negative rho (up, down):  5.350E-05 0.000E+00

     total cpu time spent up to now is      826.4 secs

     total energy              =   -1375.34936987 Ry
     estimated scf accuracy    <       1.94602764 Ry

     iteration # 11     ecut=    70.00 Ry     beta= 0.70
     Davidson diagonalization with overlap
     ethr =  3.24E-03,  avg # of iterations =  3.0

     negative rho (up, down):  1.728E-05 0.000E+00

     total cpu time spent up to now is      832.7 secs

     total energy              =   -1375.51257964 Ry
     estimated scf accuracy    <       0.18939385 Ry

     iteration # 12     ecut=    70.00 Ry     beta= 0.70
     Davidson diagonalization with overlap
     ethr =  3.16E-04,  avg # of iterations =  5.0

     negative rho (up, down):  3.841E-04 0.000E+00

     total cpu time spent up to now is      839.2 secs

     total energy              =   -1375.53755956 Ry
     estimated scf accuracy    <       0.07778157 Ry

     iteration # 13     ecut=    70.00 Ry     beta= 0.70
     Davidson diagonalization with overlap
     ethr =  1.30E-04,  avg # of iterations =  3.8

     negative rho (up, down):  2.639E-04 0.000E+00

     total cpu time spent up to now is      845.6 secs

     total energy              =   -1375.53801663 Ry
     estimated scf accuracy    <       0.08434737 Ry

     iteration # 14     ecut=    70.00 Ry     beta= 0.70
     Davidson diagonalization with overlap
     ethr =  1.30E-04,  avg # of iterations =  1.7

     negative rho (up, down):  3.205E-04 0.000E+00

     total cpu time spent up to now is      851.5 secs

     total energy              =   -1375.53946218 Ry
     estimated scf accuracy    <       0.10565013 Ry

     iteration # 15     ecut=    70.00 Ry     beta= 0.70
     Davidson diagonalization with overlap
     ethr =  1.30E-04,  avg # of iterations =  1.7

     negative rho (up, down):  8.068E-05 0.000E+00

     total cpu time spent up to now is      857.5 secs

     total energy              =   -1375.53154406 Ry
     estimated scf accuracy    <       0.24207759 Ry

     iteration # 16     ecut=    70.00 Ry     beta= 0.70
     Davidson diagonalization with overlap
     ethr =  1.30E-04,  avg # of iterations =  1.2

     negative rho (up, down):  6.028E-05 0.000E+00

     total cpu time spent up to now is      863.3 secs

     total energy              =   -1375.53315967 Ry
     estimated scf accuracy    <       0.05156589 Ry

     iteration # 17     ecut=    70.00 Ry     beta= 0.70
     Davidson diagonalization with overlap
     ethr =  8.59E-05,  avg # of iterations =  1.2

     negative rho (up, down):  2.340E-04 0.000E+00

     total cpu time spent up to now is      869.2 secs

     total energy              =   -1375.53487962 Ry
     estimated scf accuracy    <       0.03754040 Ry

     iteration # 18     ecut=    70.00 Ry     beta= 0.70
     Davidson diagonalization with overlap
     ethr =  6.26E-05,  avg # of iterations =  1.5

     negative rho (up, down):  8.673E-07 0.000E+00

     total cpu time spent up to now is      875.1 secs

     total energy              =   -1375.51808779 Ry
     estimated scf accuracy    <       0.11537059 Ry

     iteration # 19     ecut=    70.00 Ry     beta= 0.70
     Davidson diagonalization with overlap
     ethr =  6.26E-05,  avg # of iterations =  2.2

     negative rho (up, down):  6.699E-06 0.000E+00

     total cpu time spent up to now is      881.3 secs

     total energy              =   -1375.52062256 Ry
     estimated scf accuracy    <       0.04629874 Ry

     iteration # 20     ecut=    70.00 Ry     beta= 0.70
     Davidson diagonalization with overlap
     ethr =  6.26E-05,  avg # of iterations =  1.0

     negative rho (up, down):  1.048E-05 0.000E+00

     total cpu time spent up to now is      887.1 secs

     total energy              =   -1375.52116490 Ry
     estimated scf accuracy    <       0.00296089 Ry

     iteration # 21     ecut=    70.00 Ry     beta= 0.70
     Davidson diagonalization with overlap
     ethr =  4.93E-06,  avg # of iterations =  5.1

     negative rho (up, down):  2.787E-05 0.000E+00

     total cpu time spent up to now is      893.7 secs

     total energy              =   -1375.52129199 Ry
[...]
     c_bands:  2 eigenvalues not converged
     ethr =  1.00E-06,  avg # of iterations = 17.8

     negative rho (up, down):  7.203E-05 0.000E+00

     total cpu time spent up to now is     2350.2 secs

     total energy              =   -1375.11674895 Ry
     estimated scf accuracy    <       0.85241562 Ry

     iteration #  2     ecut=    70.00 Ry     beta= 0.70
     Davidson diagonalization with overlap
     ethr =  1.42E-03,  avg # of iterations =  5.0

     negative rho (up, down):  1.061E-04 0.000E+00

     total cpu time spent up to now is     2357.4 secs

     total energy              =   -1375.13730384 Ry
     estimated scf accuracy    <       1.81314922 Ry

     iteration #  3     ecut=    70.00 Ry     beta= 0.70
     Davidson diagonalization with overlap
     ethr =  1.42E-03,  avg # of iterations =  3.0

     negative rho (up, down):  9.421E-05 0.000E+00

     total cpu time spent up to now is     2364.2 secs

     total energy              =   -1375.23775272 Ry
     estimated scf accuracy    <       3.76809983 Ry

     iteration #  4     ecut=    70.00 Ry     beta= 0.70
     Davidson diagonalization with overlap
     ethr =  1.42E-03,  avg # of iterations =  2.4

     negative rho (up, down):  1.305E-04 0.000E+00

     total cpu time spent up to now is     2370.5 secs

     total energy              =   -1375.33354060 Ry
     estimated scf accuracy    <       4.75207764 Ry

     iteration #  5     ecut=    70.00 Ry     beta= 0.70
     Davidson diagonalization with overlap
     ethr =  1.42E-03,  avg # of iterations =  2.0

     negative rho (up, down):  9.017E-05 0.000E+00

     total cpu time spent up to now is     2376.8 secs

     total energy              =   -1375.52026154 Ry
     estimated scf accuracy    <       0.02246694 Ry

     iteration #  6     ecut=    70.00 Ry     beta= 0.70
     Davidson diagonalization with overlap
     ethr =  3.74E-05,  avg # of iterations =  3.1

     negative rho (up, down):  7.006E-05 0.000E+00

     total cpu time spent up to now is     2383.7 secs

     total energy              =   -1375.52120772 Ry
     estimated scf accuracy    <       0.02162298 Ry

     iteration #  7     ecut=    70.00 Ry     beta= 0.70
     Davidson diagonalization with overlap
     ethr =  3.60E-05,  avg # of iterations =  2.0

     negative rho (up, down):  7.117E-05 0.000E+00

     total cpu time spent up to now is     2389.9 secs

     total energy              =   -1375.52158484 Ry
     estimated scf accuracy    <       0.00706046 Ry

     iteration #  8     ecut=    70.00 Ry     beta= 0.70
     Davidson diagonalization with overlap
     ethr =  1.18E-05,  avg # of iterations =  1.9

     negative rho (up, down):  7.199E-05 0.000E+00

     total cpu time spent up to now is     2396.2 secs

     total energy              =   -1375.52174357 Ry
     estimated scf accuracy    <       0.00205670 Ry

     iteration #  9     ecut=    70.00 Ry     beta= 0.70
     Davidson diagonalization with overlap
     ethr =  3.43E-06,  avg # of iterations =  5.1

     negative rho (up, down):  7.136E-05 0.000E+00

     total cpu time spent up to now is     2402.8 secs

     total energy              =   -1375.52177254 Ry
     estimated scf accuracy    <       0.00032159 Ry

     iteration # 10     ecut=    70.00 Ry     beta= 0.70
     Davidson diagonalization with overlap
     ethr =  5.36E-07,  avg # of iterations =  2.5

     negative rho (up, down):  7.140E-05 0.000E+00

     total cpu time spent up to now is     2409.2 secs

     total energy              =   -1375.52176392 Ry
     estimated scf accuracy    <       0.00007187 Ry

     iteration # 11     ecut=    70.00 Ry     beta= 0.70
     Davidson diagonalization with overlap
     c_bands:  1 eigenvalues not converged
     ethr =  1.20E-07,  avg # of iterations =  3.9

     negative rho (up, down):  7.131E-05 0.000E+00

     total cpu time spent up to now is     2415.6 secs

     total energy              =   -1375.52177664 Ry
     estimated scf accuracy    <       0.00000295 Ry

     iteration # 12     ecut=    70.00 Ry     beta= 0.70
     Davidson diagonalization with overlap
     ethr =  4.92E-09,  avg # of iterations =  4.3

     negative rho (up, down):  7.130E-05 0.000E+00

     total cpu time spent up to now is     2422.9 secs

     total energy              =   -1375.52177704 Ry
     estimated scf accuracy    <       0.00000248 Ry

     iteration # 13     ecut=    70.00 Ry     beta= 0.70
     Davidson diagonalization with overlap
     ethr =  4.13E-09,  avg # of iterations =  2.0

     negative rho (up, down):  7.132E-05 0.000E+00

     total cpu time spent up to now is     2429.1 secs

     total energy              =   -1375.52177726 Ry
     estimated scf accuracy    <       0.00000005 Ry

     iteration # 14     ecut=    70.00 Ry     beta= 0.70
     Davidson diagonalization with overlap
     ethr =  7.68E-11,  avg # of iterations =  4.5

     negative rho (up, down):  7.133E-05 0.000E+00

     total cpu time spent up to now is     2436.4 secs

     total energy              =   -1375.52177727 Ry
     estimated scf accuracy    <       0.00000024 Ry

     iteration # 15     ecut=    70.00 Ry     beta= 0.70
     Davidson diagonalization with overlap
     ethr =  7.68E-11,  avg # of iterations =  2.0

     negative rho (up, down):  7.133E-05 0.000E+00

     total cpu time spent up to now is     2442.7 secs

     total energy              =   -1375.52177728 Ry
     estimated scf accuracy    <          4.2E-09 Ry

     iteration # 16     ecut=    70.00 Ry     beta= 0.70
     Davidson diagonalization with overlap
     ethr =  6.95E-12,  avg # of iterations =  2.8

     negative rho (up, down):  7.133E-05 0.000E+00

     total cpu time spent up to now is     2449.3 secs

     total energy              =   -1375.52177728 Ry
     estimated scf accuracy    <          2.1E-10 Ry

     iteration # 17     ecut=    70.00 Ry     beta= 0.70
     Davidson diagonalization with overlap
     ethr =  3.57E-13,  avg # of iterations =  3.3

     negative rho (up, down):  7.133E-05 0.000E+00

     total cpu time spent up to now is     2455.9 secs

     total energy              =   -1375.52177728 Ry
     estimated scf accuracy    <          3.2E-11 Ry

     iteration # 18     ecut=    70.00 Ry     beta= 0.70
     Davidson diagonalization with overlap
     ethr =  1.00E-13,  avg # of iterations =  2.1

     negative rho (up, down):  7.133E-05 0.000E+00

     total cpu time spent up to now is     2462.4 secs

     total energy              =   -1375.52177728 Ry
     estimated scf accuracy    <          2.6E-11 Ry

     iteration # 19     ecut=    70.00 Ry     beta= 0.70
     Davidson diagonalization with overlap
     ethr =  1.00E-13,  avg # of iterations =  1.4

     negative rho (up, down):  7.133E-05 0.000E+00

     total cpu time spent up to now is     2468.4 secs

     total energy              =   -1375.52177728 Ry
     estimated scf accuracy    <          1.1E-12 Ry

     iteration # 20     ecut=    70.00 Ry     beta= 0.70
     Davidson diagonalization with overlap
     ethr =  1.00E-13,  avg # of iterations =  1.0

     negative rho (up, down):  7.133E-05 0.000E+00

     total cpu time spent up to now is     2474.5 secs

     total energy              =   -1375.52177727 Ry
     estimated scf accuracy    <          2.2E-13 Ry

     iteration # 21     ecut=    70.00 Ry     beta= 0.70
     Davidson diagonalization with overlap
     ethr =  1.00E-13,  avg # of iterations =  1.0

     negative rho (up, down):  7.133E-05 0.000E+00

     total cpu time spent up to now is     2480.5 secs

     total energy              =   -1375.52177728 Ry
     estimated scf accuracy    <          1.1E-13 Ry

     iteration # 22     ecut=    70.00 Ry     beta= 0.70
     Davidson diagonalization with overlap
     ethr =  1.00E-13,  avg # of iterations =  1.0

     negative rho (up, down):  7.133E-05 0.000E+00

     total cpu time spent up to now is     2486.4 secs

     total energy              =   -1375.52177728 Ry
     estimated scf accuracy    <          2.4E-14 Ry

     iteration # 23     ecut=    70.00 Ry     beta= 0.70
     Davidson diagonalization with overlap
     ethr =  1.00E-13,  avg # of iterations =  1.0

     negative rho (up, down):  7.133E-05 0.000E+00

     total cpu time spent up to now is     2492.3 secs

     End of self-consistent calculation

          k = 0.0000 0.0000 0.0000 ( 16245 PWs)   bands (ev):

   -69.7614 -69.7254 -36.4788 -36.0454 -36.0454 -35.9927 -35.9927 -35.9777
   -21.4365 -21.4298 -21.4023 -21.4023 -21.3900 -21.3900 -21.3766 -21.3741
   -21.3446 -21.3365 -21.3365 -21.3295 -21.3246 -21.3246 -14.7163  -9.1421
    -5.7008  -5.7008  -5.1553  -5.1451  -3.3945  -1.7940  -1.7940   0.2034
     0.2034   1.1250   1.1250   1.6795

          k = 0.0000 0.0915 0.0000 ( 16217 PWs)   bands (ev):

   -69.7583 -69.7233 -36.4702 -36.0950 -36.0592 -36.0294 -35.9986 -35.9727
   -21.4341 -21.4276 -21.4027 -21.4011 -21.3901 -21.3891 -21.3791 -21.3766
   -21.3434 -21.3378 -21.3371 -21.3286 -21.3259 -21.3247 -14.6053  -8.9306
    -6.1429  -5.6639  -5.1127  -4.8542  -3.3170  -2.1304  -1.6120  -0.4006
     0.0479   1.1015   1.3693   2.4118

          k = 0.0000 0.1830 0.0000 ( 16185 PWs)   bands (ev):

   -69.7495 -69.7177 -36.4529 -36.2172 -36.1224 -36.0947 -36.0166 -35.9705
   -21.4278 -21.4214 -21.4036 -21.3983 -21.3901 -21.3866 -21.3858 -21.3831
   -21.3421 -21.3392 -21.3387 -21.3297 -21.3259 -21.3248 -14.3087  -8.3667
    -6.8355  -5.5947  -4.9852  -4.4546  -3.3170  -2.6705  -1.1449  -1.1054
     0.0121   1.0051   1.7052   3.4095

          k = 0.0000 0.2745 0.0000 ( 16135 PWs)   bands (ev):

   -69.7372 -69.7103 -36.4697 -36.3682 -36.2104 -36.1404 -36.0435 -35.9750
   -21.4196 -21.4130 -21.4043 -21.3984 -21.3946 -21.3901 -21.3883 -21.3829
   -21.3465 -21.3410 -21.3360 -21.3331 -21.3248 -21.3226 -13.9229  -7.9227
    -7.1857  -5.5734  -4.7604  -4.0744  -3.8706  -2.4744  -1.6246  -0.4034
     0.4810   0.8960   1.8786   3.9638

          k = 0.0000 0.3660 0.0000 ( 16176 PWs)   bands (ev):

   -69.7244 -69.7035 -36.5733 -36.4974 -36.2183 -36.1842 -36.0717 -35.9870
   -21.4138 -21.4058 -21.4048 -21.4034 -21.4023 -21.3899 -21.3858 -21.3788
   -21.3509 -21.3433 -21.3402 -21.3281 -21.3248 -21.3196 -13.5660  -8.2870
    -6.7370  -5.6230  -4.7004  -4.1480  -3.5170  -2.0415  -1.7183   0.3945
     0.7570   1.4206   1.9490   3.8317

          k = 0.0000 0.4575 0.0000 ( 16198 PWs)   bands (ev):

   -69.7142 -69.6993 -36.6766 -36.5903 -36.2155 -36.1853 -36.0929 -36.0043
   -21.4127 -21.4121 -21.4099 -21.3993 -21.3973 -21.3895 -21.3829 -21.3753
   -21.3540 -21.3453 -21.3437 -21.3247 -21.3233 -21.3178 -13.3279  -8.6124
    -6.5067  -5.6927  -5.0154  -3.6011  -3.0671  -1.6850  -1.5005   0.6815
     1.1354   1.9688   2.5452   3.6571

          k =-0.0000-0.5490 0.0000 ( 16198 PWs)   bands (ev):

   -69.7102 -69.6980 -36.7156 -36.6250 -36.2268 -36.1667 -36.1007 -36.0143
   -21.4144 -21.4127 -21.4123 -21.3972 -21.3950 -21.3893 -21.3818 -21.3739
   -21.3552 -21.3460 -21.3451 -21.3247 -21.3212 -21.3175 -13.2465  -8.7260
    -6.4699  -5.7234  -5.1320  -3.2955  -2.9121  -1.4742  -1.4167   0.7171
     1.3889   2.1517   3.0599   3.6363

          k = 0.0792 0.1373 0.0000 ( 16199 PWs)   bands (ev):

   -69.7523 -69.7195 -36.4569 -36.1723 -36.1177 -36.0608 -36.0182 -35.9701
   -21.4298 -21.4234 -21.4031 -21.3993 -21.3899 -21.3876 -21.3837 -21.3811
   -21.3417 -21.3394 -21.3385 -21.3283 -21.3267 -21.3250 -14.4013  -8.5353
    -6.6339  -5.6998  -4.9488  -4.5773  -3.2052  -2.6564  -1.3111  -0.7385
    -0.3208   1.2859   1.5296   3.1802

          k = 0.0792 0.2288 0.0000 ( 16147 PWs)   bands (ev):

   -69.7418 -69.7130 -36.4527 -36.3019 -36.2026 -36.1095 -36.0491 -35.9709
   -21.4224 -21.4161 -21.4037 -21.3977 -21.3915 -21.3897 -21.3874 -21.3847
   -21.3443 -21.3412 -21.3363 -21.3318 -21.3255 -21.3238 -14.0594  -7.8959
    -7.1994  -5.8144  -4.6364  -4.2106  -3.4809  -2.8720  -1.3871  -0.7536
    -0.0323   1.2131   1.9334   3.8559

          k = 0.0792 0.3203 0.0000 ( 16162 PWs)   bands (ev):

   -69.7292 -69.7059 -36.5151 -36.4383 -36.2374 -36.1649 -36.0809 -35.9788
   -21.4151 -21.4077 -21.4033 -21.4026 -21.4001 -21.3903 -21.3867 -21.3811
   -21.3487 -21.3439 -21.3368 -21.3305 -21.3258 -21.3207 -13.6877  -7.9613
    -6.9551  -5.9258  -4.3274  -4.0843  -3.7246  -2.4793  -1.7407  -0.3286
     0.7532   1.3508   2.1765   4.0535

          k = 0.0792 0.4118 0.0000 ( 16192 PWs)   bands (ev):

   -69.7176 -69.7005 -36.6232 -36.5437 -36.2356 -36.1923 -36.1049 -35.9945
   -21.4121 -21.4100 -21.4078 -21.4009 -21.3989 -21.3894 -21.3842 -21.3774
   -21.3526 -21.3459 -21.3411 -21.3262 -21.3250 -21.3184 -13.3917  -8.3613
    -6.5346  -5.9986  -4.5897  -3.7303  -3.2436  -2.0187  -1.7230  -0.0941
     1.3560   2.0748   2.3888   3.7496

          k = 0.0792 0.5033 0.0000 ( 16206 PWs)   bands (ev):

   -69.7102 -69.6980 -36.6928 -36.6042 -36.2528 -36.1804 -36.1108 -36.0114
   -21.4146 -21.4127 -21.4111 -21.3970 -21.3949 -21.3887 -21.3826 -21.3749
   -21.3549 -21.3465 -21.3442 -21.3261 -21.3216 -21.3175 -13.2341  -8.5803
    -6.4235  -6.0503  -4.7671  -3.2842  -2.9243  -1.6478  -1.5345  -0.0568
     1.9611   2.1252   3.1075   3.5710

          k = 0.1585 0.2745 0.0000 ( 16172 PWs)   bands (ev):

   -69.7309 -69.7068 -36.4902 -36.4030 -36.2570 -36.1386 -36.1095 -35.9749
   -21.4157 -21.4087 -21.4026 -21.4019 -21.3991 -21.3910 -21.3862 -21.3827
   -21.3467 -21.3454 -21.3342 -21.3317 -21.3270 -21.3211 -13.7309  -7.6072
    -7.2112  -6.1825  -4.1022  -3.8975  -3.6835  -2.9472  -1.6916  -0.7248
     0.7608   1.2885   2.4926   4.2677

          k = 0.1585 0.3660 0.0000 ( 16195 PWs)   bands (ev):

   -69.7194 -69.7013 -36.5664 -36.4970 -36.2797 -36.1834 -36.1421 -35.9870
   -21.4112 -21.4088 -21.4066 -21.4015 -21.3994 -21.3901 -21.3839 -21.3803
   -21.3507 -21.3477 -21.3378 -21.3290 -21.3259 -21.3188 -13.4209  -7.9512
    -6.6421  -6.4222  -3.9623  -3.6160  -3.4182  -2.6520  -1.9827  -0.6257
     1.4618   1.7757   3.0523   4.0476

          k = 0.1585 0.4575 0.0000 ( 16208 PWs)   bands (ev):

   -69.7102 -69.6980 -36.6363 -36.5560 -36.3135 -36.2230 -36.1244 -36.0065
   -21.4148 -21.4128 -21.4084 -21.3967 -21.3947 -21.3881 -21.3834 -21.3775
   -21.3542 -21.3479 -21.3418 -21.3293 -21.3222 -21.3175 -13.2091  -8.2069
    -6.5799  -6.3173  -4.0844  -3.2335  -2.9715  -2.1811  -1.9074  -0.6867
     1.7842   2.2972   3.3296   3.7793

          k = 0.1585 0.5490 0.0000 ( 16214 PWs)   bands (ev):

   -69.7063 -69.6973 -36.6635 -36.5757 -36.3308 -36.2367 -36.1077 -36.0194
   -21.4168 -21.4148 -21.4083 -21.3948 -21.3927 -21.3869 -21.3837 -21.3763
   -21.3555 -21.3472 -21.3441 -21.3294 -21.3205 -21.3173 -13.1352  -8.3003
    -6.6054  -6.2665  -4.1353  -3.0107  -2.8497  -1.8354  -1.8169  -0.7322
     1.9087   2.2338   3.2017   3.6527

          k = 0.2377 0.4118 0.0000 ( 16214 PWs)   bands (ev):

   -69.7102 -69.6980 -36.5965 -36.5282 -36.3506 -36.2550 -36.1284 -36.0043
   -21.4148 -21.4129 -21.4069 -21.3964 -21.3946 -21.3888 -21.3817 -21.3802
   -21.3537 -21.3487 -21.3398 -21.3316 -21.3225 -21.3175 -13.1965  -7.9180
    -6.9136  -6.2597  -3.4842  -3.1765  -3.0159  -2.7681  -2.1483  -0.8611
     1.7099   2.2877   3.2915   3.9779

          k = 0.2377 0.5033 0.0000 ( 16203 PWs)   bands (ev):

   -69.7037 -69.6973 -36.6052 -36.5257 -36.4132 -36.3170 -36.0939 -36.0277
   -21.4181 -21.4161 -21.4054 -21.3935 -21.3915 -21.3863 -21.3831 -21.3790
   -21.3559 -21.3475 -21.3428 -21.3331 -21.3202 -21.3172 -13.0704  -7.9115
    -7.1071  -6.1103  -3.3416  -2.8955  -2.8101  -2.3622  -2.1041  -1.0142
     1.5393   1.9477   3.1764   3.6289

          k = 0.3170 0.5490 0.0000 ( 16218 PWs)   bands (ev):

   -69.7001 -69.6983 -36.5590 -36.4850 -36.4846 -36.3836 -36.0588 -36.0573
   -21.4193 -21.4173 -21.4039 -21.3923 -21.3903 -21.3852 -21.3829 -21.3802
   -21.3567 -21.3462 -21.3438 -21.3348 -21.3194 -21.3171 -13.0186  -7.5480
    -7.5408  -6.0148  -2.9064  -2.9007  -2.5505  -2.3623  -2.3585  -1.1137
     1.3640   1.3845   3.4449   3.4451

     the Fermi energy is    -1.9778 ev

!    total energy              =   -1375.52177728 Ry
     estimated scf accuracy    <          1.6E-15 Ry
     smearing contrib. (-TS)   =      -0.00001971 Ry
     internal energy E=F+TS    =   -1375.52175757 Ry

     The total energy is F=E-TS. E is the sum of the following terms:
     one-electron contribution =  -10966.62468014 Ry
     hartree contribution      =    5508.94132292 Ry
     xc contribution           =    -140.06660508 Ry
     ewald contribution        =    4222.22820473 Ry

     convergence has been achieved in  23 iterations

     negative rho (up, down):  7.133E-05 0.000E+00

     Forces acting on atoms (cartesian axes, Ry/au):

     atom    1 type  2   force =     0.00000000    0.00000000    0.00103011
     atom    2 type  1   force =     0.00000000    0.00000000   -0.00069314
     atom    3 type  1   force =     0.00000000    0.00000000   -0.00095503
     atom    4 type  3   force =     0.00000000    0.00000000    0.00011944
     atom    5 type  3   force =    -0.00000000   -0.00000000    0.00049862

     Total force =     0.001287     Total SCF correction =     0.000000


     Computing stress (Cartesian axis) and pressure


     negative rho (up, down):  7.133E-05 0.000E+00
          total   stress  (Ry/bohr**3)                   (kbar)     P=       -0.15
   0.00000125  -0.00000000   0.00000000            0.18       -0.00        0.00
  -0.00000000   0.00000125   0.00000000           -0.00        0.18        0.00
   0.00000000   0.00000000  -0.00000553            0.00        0.00       -0.81


     Writing output data file /scratch/as3359/Ta2CH2-VCrelax/Ta.save/
 
     init_run     :     55.12s CPU     36.69s WALL (       2 calls)
     electrons    :   3639.23s CPU   1988.24s WALL (      11 calls)
     update_pot   :    251.25s CPU    156.99s WALL (       9 calls)
     forces       :    182.35s CPU     94.10s WALL (      11 calls)
     stress       :    451.42s CPU    234.99s WALL (      11 calls)

     Called by init_run:
     wfcinit      :      5.88s CPU      3.05s WALL (       2 calls)
     potinit      :     15.66s CPU      7.89s WALL (       2 calls)
     hinit0       :     29.22s CPU     22.93s WALL (       2 calls)

     Called by electrons:
     c_bands      :   1907.25s CPU    969.57s WALL (     299 calls)
     sum_band     :   1021.77s CPU    587.16s WALL (     299 calls)
     v_of_rho     :    105.07s CPU     54.65s WALL (     309 calls)
     newd         :    597.49s CPU    374.72s WALL (     309 calls)
     mix_rho      :     19.77s CPU     10.15s WALL (     299 calls)

     Called by c_bands:
     init_us_2    :     47.09s CPU     23.59s WALL (   11818 calls)
     cegterg      :   1763.14s CPU    896.98s WALL (    5696 calls)

     Called by *egterg:
     cdiaghg      :     53.35s CPU     27.28s WALL (   24582 calls)
     h_psi        :   1393.69s CPU    709.79s WALL (   24825 calls)
     s_psi        :     62.85s CPU     31.53s WALL (   24825 calls)
     g_psi        :      7.68s CPU      3.88s WALL (   19091 calls)

     Called by h_psi:
     h_psi:calbec :     55.70s CPU     28.00s WALL (   24825 calls)
     vloc_psi     :   1252.65s CPU    638.61s WALL (   24825 calls)
     add_vuspsi   :     75.09s CPU     37.68s WALL (   24825 calls)

     General routines
     calbec       :     77.34s CPU     38.88s WALL (   31551 calls)
     fft          :     65.41s CPU     33.48s WALL (    4280 calls)
     ffts         :      2.08s CPU      1.06s WALL (     608 calls)
     fftw         :   1288.78s CPU    657.62s WALL ( 1209556 calls)
     interpolate  :      6.88s CPU      3.52s WALL (     309 calls)
 
     Parallel routines
 
     PWSCF        :      1h16m CPU  42m 3.75s WALL

 
   This run was terminated on:   8:25:13  22Apr2022            

=------------------------------------------------------------------------------=
   JOB DONE.
=------------------------------------------------------------------------------=
